Building molecule...
Time: 1606277758.2582126
====================
#INFO: **** input file is /home/ubuntu/src/casscf_test.py ****

import pyscf
from pyscf import gto, scf, mcscf
from gen_hamiltonian import load_xyz
from time import time

def build_femoco():
    """ Returns the PySCF Mol object for Femoco """

    g = load_xyz("molecules/ICS.xyz")

    mol = gto.Mole()
    mol.atom = g
    mol.basis = "sto-3g"
    mol.spin = 3
    mol.charge = -1
    mol.symmetry = True
    mol.max_memory = 1024 * 14
    mol.verbose = 4
    mol.build()

    return mol

def casscf():
    print("Building molecule...")
    print(f"Time: {time()}")
    print("=" * 20)
    mol = build_femoco()

    print("Running ROHF...")
    print(f"Time: {time()}")
    print("=" * 20)
    mf = scf.ROHF(mol)
    mf.chkfile = 'rohf.chk'
    mf.init_guess = 'chkfile'
    mf.verbose = 4
    mf.kernel()

    print("Running CASSCF...")
    print(f"Time: {time()}")
    print("=" * 20)

    n_orbitals = 6
    n_electrons = 6

    mc = mcscf.CASSCF(mf, n_orbitals, n_electrons)
    mc.chkfile = f'casscf-{n_orbitals}-{n_electrons}.chk'
    mc.init_guess = 'chkfile'
    mc.verbose = 4
    energy = mc.kernel()
    print(energy)

if __name__ == "__main__":
    casscf()
#INFO: ******************** input file end ********************


System: uname_result(system='Linux', node='ip-172-31-48-247', release='5.4.0-1029-aws', version='#30-Ubuntu SMP Tue Oct 20 10:06:38 UTC 2020', machine='x86_64', processor='x86_64')  Threads 2
Python 3.7.1 (default, Dec 14 2018, 19:28:38) 
[GCC 7.3.0]
numpy 1.19.4  scipy 1.5.4
Date: Wed Nov 25 04:15:58 2020
PySCF version 1.7.5.1
PySCF path  /home/ubuntu/.local/lib/python3.7/site-packages/pyscf

[CONFIG] conf_file None
[INPUT] verbose = 4
[INPUT] num. atoms = 18
[INPUT] num. electrons = 375
[INPUT] charge = -1
[INPUT] spin (= nelec alpha-beta = 2S) = 3
[INPUT] symmetry True subgroup None
[INPUT] Mole.unit = angstrom
[INPUT]  1 Fe    10.018000000000  -7.568000000000  56.109000000000 AA   18.931276315893 -14.301447310708 106.030643123221 Bohr
[INPUT]  2 Mo    16.132000000000  -5.638000000000  53.306000000000 AA   30.485061841484 -10.654275890298 100.733740796065 Bohr
[INPUT]  3 Fe    11.990000000000  -5.771000000000  56.166000000000 AA   22.657816233535 -10.905609464865 106.138357512321 Bohr
[INPUT]  4 Fe    11.277000000000  -6.902000000000  53.853000000000 AA   21.310441506720 -13.042889711748 101.767420986202 Bohr
[INPUT]  5 Fe    12.528000000000  -8.326000000000  55.692000000000 AA   23.674488888551 -15.733859713129 105.242627329277 Bohr
[INPUT]  6 Fe    14.820000000000  -7.601000000000  54.671000000000 AA   28.005741166054 -14.363808272819 103.313216956096 Bohr
[INPUT]  7 Fe    14.226000000000  -5.072000000000  55.094000000000 AA   26.883243848063  -9.584690903794 104.112571106788 Bohr
[INPUT]  8 Fe    13.550000000000  -6.198000000000  52.849000000000 AA   25.605788987857 -11.712522520054  99.870135957139 Bohr
[INPUT]  9 C     13.044000000000  -6.665000000000  54.724000000000 AA   24.649587568827 -12.595024620226 103.413372440698 Bohr
[INPUT] 10 S     11.719000000000  -7.459000000000  57.646000000000 AA   22.145700453778 -14.095467163131 108.935152176678 Bohr
[INPUT] 11 S     16.169000000000  -6.043000000000  55.618000000000 AA   30.554981708092 -11.419614970747 105.102787596060 Bohr
[INPUT] 12 S     10.001000000000  -5.522000000000  55.135000000000 AA   18.899150971775 -10.435067659848 104.190049877895 Bohr
[INPUT] 13 S     13.162000000000  -3.960000000000  56.628000000000 AA   24.872575251525  -7.483315453278 107.011410981870 Bohr
[INPUT] 14 S     14.407000000000  -9.544000000000  55.751000000000 AA   27.225284276609 -18.035546132849 105.354121170627 Bohr
[INPUT] 15 S     14.337000000000  -4.109000000000  53.098000000000 AA   27.093003447889  -7.764884645838 100.340677762156 Bohr
[INPUT] 16 S     10.718000000000  -8.998000000000  54.467000000000 AA   20.254084603088 -17.003755668836 102.927712826685 Bohr
[INPUT] 17 S     15.203000000000  -7.626000000000  52.454000000000 AA   28.729506271763 -14.411051425933  99.123694137936 Bohr
[INPUT] 18 S     11.674000000000  -6.465000000000  51.712000000000 AA   22.060662778173 -12.217079395313  97.721517353508 Bohr

nuclear repulsion = 9943.87740731211
point group symmetry = C1
num. orbitals of irrep A = 239
number of shells = 115
number of NR pGTOs = 717
number of NR cGTOs = 239
basis = sto-3g
ecp = {}
CPU time:         0.43
Running ROHF...
Time: 1606277758.299826
====================


******** <class 'pyscf.scf.rohf.ROHF'> ********
method = ROHF-RHF
initial guess = chkfile
damping factor = 0
level_shift factor = 0
DIIS = <class 'pyscf.scf.diis.CDIIS'>
diis_start_cycle = 1
diis_space = 8
SCF conv_tol = 1e-09
SCF conv_tol_grad = None
SCF max_cycles = 50
direct_scf = True
direct_scf_tol = 1e-13
chkfile to save SCF result = rohf.chk
max_memory 14336 MB (current use 89 MB)
num. doubly occ = 186  num. singly occ = 3
Set gradient conv threshold to 3.16228e-05
Building molecule...
Time: 1606277787.4367836
====================
#INFO: **** input file is /home/ubuntu/src/casscf_test.py ****

import pyscf
from pyscf import gto, scf, mcscf
from gen_hamiltonian import load_xyz
from time import time

def build_femoco():
    """ Returns the PySCF Mol object for Femoco """

    g = load_xyz("molecules/ICS.xyz")

    mol = gto.Mole()
    mol.atom = g
    mol.basis = "sto-3g"
    mol.spin = 3
    mol.charge = -1
    mol.symmetry = True
    mol.max_memory = 1024 * 14
    mol.verbose = 4
    mol.build()

    return mol

def casscf():
    print("Building molecule...")
    print(f"Time: {time()}")
    print("=" * 20)
    mol = build_femoco()

    print("Running ROHF...")
    print(f"Time: {time()}")
    print("=" * 20)
    mf = scf.ROHF(mol)
    mf.chkfile = 'rohf.chk'
    mf.init_guess = 'chkfile'
    mf.verbose = 4
    mf.kernel()

    print("Running CASSCF...")
    print(f"Time: {time()}")
    print("=" * 20)

    n_orbitals = 6
    n_electrons = 6

    mc = mcscf.CASSCF(mf, n_orbitals, n_electrons)
    mc.chkfile = f'casscf-{n_orbitals}-{n_electrons}.chk'
    mc.init_guess = 'chkfile'
    mc.verbose = 4
    energy = mc.kernel()
    print(energy)

if __name__ == "__main__":
    casscf()
#INFO: ******************** input file end ********************


System: uname_result(system='Linux', node='ip-172-31-48-247', release='5.4.0-1029-aws', version='#30-Ubuntu SMP Tue Oct 20 10:06:38 UTC 2020', machine='x86_64', processor='x86_64')  Threads 2
Python 3.7.1 (default, Dec 14 2018, 19:28:38) 
[GCC 7.3.0]
numpy 1.19.4  scipy 1.5.4
Date: Wed Nov 25 04:16:27 2020
PySCF version 1.7.5.1
PySCF path  /home/ubuntu/.local/lib/python3.7/site-packages/pyscf

[CONFIG] conf_file None
[INPUT] verbose = 4
[INPUT] num. atoms = 18
[INPUT] num. electrons = 375
[INPUT] charge = -1
[INPUT] spin (= nelec alpha-beta = 2S) = 3
[INPUT] symmetry True subgroup None
[INPUT] Mole.unit = angstrom
[INPUT]  1 Fe    10.018000000000  -7.568000000000  56.109000000000 AA   18.931276315893 -14.301447310708 106.030643123221 Bohr
[INPUT]  2 Mo    16.132000000000  -5.638000000000  53.306000000000 AA   30.485061841484 -10.654275890298 100.733740796065 Bohr
[INPUT]  3 Fe    11.990000000000  -5.771000000000  56.166000000000 AA   22.657816233535 -10.905609464865 106.138357512321 Bohr
[INPUT]  4 Fe    11.277000000000  -6.902000000000  53.853000000000 AA   21.310441506720 -13.042889711748 101.767420986202 Bohr
[INPUT]  5 Fe    12.528000000000  -8.326000000000  55.692000000000 AA   23.674488888551 -15.733859713129 105.242627329277 Bohr
[INPUT]  6 Fe    14.820000000000  -7.601000000000  54.671000000000 AA   28.005741166054 -14.363808272819 103.313216956096 Bohr
[INPUT]  7 Fe    14.226000000000  -5.072000000000  55.094000000000 AA   26.883243848063  -9.584690903794 104.112571106788 Bohr
[INPUT]  8 Fe    13.550000000000  -6.198000000000  52.849000000000 AA   25.605788987857 -11.712522520054  99.870135957139 Bohr
[INPUT]  9 C     13.044000000000  -6.665000000000  54.724000000000 AA   24.649587568827 -12.595024620226 103.413372440698 Bohr
[INPUT] 10 S     11.719000000000  -7.459000000000  57.646000000000 AA   22.145700453778 -14.095467163131 108.935152176678 Bohr
[INPUT] 11 S     16.169000000000  -6.043000000000  55.618000000000 AA   30.554981708092 -11.419614970747 105.102787596060 Bohr
[INPUT] 12 S     10.001000000000  -5.522000000000  55.135000000000 AA   18.899150971775 -10.435067659848 104.190049877895 Bohr
[INPUT] 13 S     13.162000000000  -3.960000000000  56.628000000000 AA   24.872575251525  -7.483315453278 107.011410981870 Bohr
[INPUT] 14 S     14.407000000000  -9.544000000000  55.751000000000 AA   27.225284276609 -18.035546132849 105.354121170627 Bohr
[INPUT] 15 S     14.337000000000  -4.109000000000  53.098000000000 AA   27.093003447889  -7.764884645838 100.340677762156 Bohr
[INPUT] 16 S     10.718000000000  -8.998000000000  54.467000000000 AA   20.254084603088 -17.003755668836 102.927712826685 Bohr
[INPUT] 17 S     15.203000000000  -7.626000000000  52.454000000000 AA   28.729506271763 -14.411051425933  99.123694137936 Bohr
[INPUT] 18 S     11.674000000000  -6.465000000000  51.712000000000 AA   22.060662778173 -12.217079395313  97.721517353508 Bohr

nuclear repulsion = 9943.87740731211
point group symmetry = C1
num. orbitals of irrep A = 239
number of shells = 115
number of NR pGTOs = 717
number of NR cGTOs = 239
basis = sto-3g
ecp = {}
CPU time:         0.43
Running ROHF...
Time: 1606277787.4793408
====================


******** <class 'pyscf.scf.rohf.ROHF'> ********
method = ROHF-RHF
initial guess = chkfile
damping factor = 0
level_shift factor = 0
DIIS = <class 'pyscf.scf.diis.CDIIS'>
diis_start_cycle = 1
diis_space = 8
SCF conv_tol = 1e-09
SCF conv_tol_grad = None
SCF max_cycles = 50
direct_scf = True
direct_scf_tol = 1e-13
chkfile to save SCF result = rohf.chk
max_memory 14336 MB (current use 89 MB)
num. doubly occ = 186  num. singly occ = 3
Set gradient conv threshold to 3.16228e-05
init E= -16253.7946845647
  HOMO = 0.0663558351867337  LUMO = 0.219684463666512
cycle= 1 E= -16253.7888668828  delta_E= 0.00582  |g|= 0.0573  |ddm|= 0.24
  HOMO = 0.0720385464846653  LUMO = 0.21965963086868
cycle= 2 E= -16253.7390279396  delta_E= 0.0498  |g|= 0.175  |ddm|=  0.8
  HOMO = 0.080222377314721  LUMO = 0.219651098590578
cycle= 3 E= -16253.7878678226  delta_E= -0.0488  |g|= 0.0649  |ddm|= 0.41
  HOMO = 0.0686835402464662  LUMO = 0.220177710015283
cycle= 4 E= -16253.7953686001  delta_E= -0.0075  |g|= 0.0286  |ddm|= 0.186
  HOMO = 0.0680843535424418  LUMO = 0.219999772389341
cycle= 5 E= -16253.7956797677  delta_E= -0.000311  |g|= 0.0256  |ddm|= 0.0373
  HOMO = 0.0676660053240912  LUMO = 0.219937292998407
cycle= 6 E= -16253.7959131696  delta_E= -0.000233  |g|= 0.0239  |ddm|= 0.0162
  HOMO = 0.0672946037253745  LUMO = 0.219944226498594
cycle= 7 E= -16253.796268204  delta_E= -0.000355  |g|= 0.0218  |ddm|= 0.0224
  HOMO = 0.0671313255566608  LUMO = 0.21996875792145
cycle= 8 E= -16253.7965723059  delta_E= -0.000304  |g|= 0.0202  |ddm|= 0.0196
  HOMO = 0.067113519745763  LUMO = 0.219968884756644
cycle= 9 E= -16253.7967011595  delta_E= -0.000129  |g|= 0.0198  |ddm|= 0.0077
  HOMO = 0.0665983628403487  LUMO = 0.219992828204681
cycle= 10 E= -16253.7974836856  delta_E= -0.000783  |g|= 0.0195  |ddm|= 0.0627
  HOMO = 0.0666733882426465  LUMO = 0.220062957519514
cycle= 11 E= -16253.7976722114  delta_E= -0.000189  |g|= 0.0188  |ddm|= 0.0229
  HOMO = 0.0667213319362124  LUMO = 0.219946488312701
cycle= 12 E= -16253.7971640559  delta_E= 0.000508  |g|= 0.019  |ddm|= 0.0313
  HOMO = 0.066644942799983  LUMO = 0.22001869813267
cycle= 13 E= -16253.7975207892  delta_E= -0.000357  |g|= 0.019  |ddm|= 0.0258
  HOMO = 0.0666019156155895  LUMO = 0.220024325413586
cycle= 14 E= -16253.7971894115  delta_E= 0.000331  |g|= 0.019  |ddm|= 0.0235
  HOMO = 0.0667628668714298  LUMO = 0.219659712154463
cycle= 15 E= -16253.7948840888  delta_E= 0.00231  |g|= 0.0188  |ddm|= 0.145
  HOMO = 0.0671652731412598  LUMO = 0.218954843718691
cycle= 16 E= -16253.7916478134  delta_E= 0.00324  |g|= 0.0187  |ddm|= 0.207
  HOMO = 0.0671392705009362  LUMO = 0.219028167021445
cycle= 17 E= -16253.7916028996  delta_E= 4.49e-05  |g|= 0.0187  |ddm|= 0.022
  HOMO = 0.0672135228718894  LUMO = 0.218948314270319
cycle= 18 E= -16253.7908388254  delta_E= 0.000764  |g|= 0.0185  |ddm|= 0.0557
  HOMO = 0.0674775219497226  LUMO = 0.218531175185799
cycle= 19 E= -16253.7891359951  delta_E= 0.0017  |g|= 0.0187  |ddm|= 0.113
  HOMO = 0.0674666459388535  LUMO = 0.218363150575014
cycle= 20 E= -16253.7876618944  delta_E= 0.00147  |g|= 0.0201  |ddm|= 0.104
  HOMO = 0.0675963463126827  LUMO = 0.218328977843826
cycle= 21 E= -16253.7873549258  delta_E= 0.000307  |g|= 0.0191  |ddm|= 0.0642
  HOMO = 0.0681384492747775  LUMO = 0.218107026797952
cycle= 22 E= -16253.7855790867  delta_E= 0.00178  |g|= 0.0191  |ddm|= 0.135
  HOMO = 0.0681741548200576  LUMO = 0.218061779076625
cycle= 23 E= -16253.7835034094  delta_E= 0.00208  |g|= 0.0188  |ddm|= 0.162
  HOMO = 0.0681642606921329  LUMO = 0.218018690100092
cycle= 24 E= -16253.783002859  delta_E= 0.000501  |g|= 0.0183  |ddm|= 0.0442
  HOMO = 0.0680002380931282  LUMO = 0.218145021270944
cycle= 25 E= -16253.7835868796  delta_E= -0.000584  |g|= 0.0182  |ddm|= 0.0454
  HOMO = 0.0681019850470026  LUMO = 0.217979303177306
cycle= 26 E= -16253.7839539824  delta_E= -0.000367  |g|= 0.018  |ddm|= 0.0331
  HOMO = 0.0682538929989893  LUMO = 0.217769913739339
cycle= 27 E= -16253.7838321364  delta_E= 0.000122  |g|= 0.019  |ddm|= 0.046
  HOMO = 0.0682174390180817  LUMO = 0.217969111927617
cycle= 28 E= -16253.7840107004  delta_E= -0.000179  |g|= 0.0188  |ddm|= 0.048
  HOMO = 0.068617363553067  LUMO = 0.218019520814895
cycle= 29 E= -16253.7834761943  delta_E= 0.000535  |g|= 0.0203  |ddm|= 0.0744
  HOMO = 0.0683927511556358  LUMO = 0.217985869204968
cycle= 30 E= -16253.7847758258  delta_E= -0.0013  |g|= 0.0183  |ddm|= 0.114
  HOMO = 0.0682849014199143  LUMO = 0.218139466097128
cycle= 31 E= -16253.7846837351  delta_E= 9.21e-05  |g|= 0.0177  |ddm|= 0.0459
  HOMO = 0.0684248017391688  LUMO = 0.21819464247387
cycle= 32 E= -16253.7849473923  delta_E= -0.000264  |g|= 0.0184  |ddm|= 0.0531
  HOMO = 0.0686134489011815  LUMO = 0.218146018181472
cycle= 33 E= -16253.7854699251  delta_E= -0.000523  |g|= 0.017  |ddm|= 0.0445
  HOMO = 0.0686622444466765  LUMO = 0.218272757802853
cycle= 34 E= -16253.7862035683  delta_E= -0.000734  |g|= 0.017  |ddm|= 0.0624
  HOMO = 0.0686215015161491  LUMO = 0.218485223206262
cycle= 35 E= -16253.7864801999  delta_E= -0.000277  |g|= 0.0175  |ddm|= 0.0351
  HOMO = 0.0688737260639803  LUMO = 0.218599797340093
cycle= 36 E= -16253.7872348447  delta_E= -0.000755  |g|= 0.0169  |ddm|= 0.0649
  HOMO = 0.0690281583913113  LUMO = 0.218604033852416
cycle= 37 E= -16253.7879528224  delta_E= -0.000718  |g|= 0.017  |ddm|= 0.064
  HOMO = 0.0691254411563101  LUMO = 0.218666995289465
cycle= 38 E= -16253.7885489349  delta_E= -0.000596  |g|= 0.0166  |ddm|= 0.0498
  HOMO = 0.0689665359810544  LUMO = 0.218872416469882
cycle= 39 E= -16253.7890860042  delta_E= -0.000537  |g|= 0.0166  |ddm|= 0.0417
  HOMO = 0.0691059540570249  LUMO = 0.21891481160907
cycle= 40 E= -16253.7895870205  delta_E= -0.000501  |g|= 0.0166  |ddm|= 0.0442
  HOMO = 0.0691011302168459  LUMO = 0.218937061319098
cycle= 41 E= -16253.7899225119  delta_E= -0.000335  |g|= 0.0165  |ddm|= 0.0286
  HOMO = 0.0690945954318215  LUMO = 0.219006027772659
cycle= 42 E= -16253.7906148366  delta_E= -0.000692  |g|= 0.0164  |ddm|= 0.0532
  HOMO = 0.0690330569258319  LUMO = 0.21911078988023
cycle= 43 E= -16253.7911058739  delta_E= -0.000491  |g|= 0.0164  |ddm|= 0.0357
  HOMO = 0.0690026266475973  LUMO = 0.219147565858344
cycle= 44 E= -16253.7913071185  delta_E= -0.000201  |g|= 0.0164  |ddm|= 0.0171
  HOMO = 0.0689631404286788  LUMO = 0.219192368085008
cycle= 45 E= -16253.7914953515  delta_E= -0.000188  |g|= 0.0164  |ddm|= 0.0152
  HOMO = 0.0689540461578334  LUMO = 0.219206358154284
cycle= 46 E= -16253.7915604093  delta_E= -6.51e-05  |g|= 0.0164  |ddm|= 0.00478
  HOMO = 0.0689596062822121  LUMO = 0.219212679910075
cycle= 47 E= -16253.7914441679  delta_E= 0.000116  |g|= 0.0164  |ddm|= 0.0097
  HOMO = 0.0689956291968074  LUMO = 0.219201750088794
cycle= 48 E= -16253.7914402811  delta_E= 3.89e-06  |g|= 0.0164  |ddm|= 0.00709
  HOMO = 0.0690470640141867  LUMO = 0.219095049195294
cycle= 49 E= -16253.79079537  delta_E= 0.000645  |g|= 0.0165  |ddm|= 0.0472
  HOMO = 0.0691937428105976  LUMO = 0.219008974592175
cycle= 50 E= -16253.7903349034  delta_E= 0.00046  |g|= 0.0164  |ddm|= 0.0365
SCF not converged.
SCF energy = -16253.7903349034
Running CASSCF...
Time: 1606278047.2491944
====================

******** <class 'pyscf.mcscf.mc1step_symm.SymAdaptedCASSCF'> ********
<class 'pyscf.mcscf.mc1step_symm.SymAdaptedCASSCF'> does not have attributes  init_guess
Traceback (most recent call last):
  File "casscf_test.py", line 54, in <module>
    casscf()
  File "casscf_test.py", line 50, in casscf
    energy = mc.kernel()
  File "/home/ubuntu/.local/lib/python3.7/site-packages/pyscf/mcscf/mc1step_symm.py", line 64, in kernel
    self.dump_flags()
  File "/home/ubuntu/.local/lib/python3.7/site-packages/pyscf/mcscf/mc1step.py", line 738, in dump_flags
    ncore = self.ncore
  File "/home/ubuntu/.local/lib/python3.7/site-packages/pyscf/mcscf/casci.py", line 728, in ncore
    assert(ncorelec % 2 == 0)
AssertionError
Building molecule...
Time: 1606296025.0349038
====================
#INFO: **** input file is /home/ubuntu/src/casscf_test.py ****

import pyscf
from pyscf import gto, scf, mcscf
from gen_hamiltonian import load_xyz
from time import time

def build_femoco():
    """ Returns the PySCF Mol object for Femoco """

    g = load_xyz("molecules/ICS.xyz")

    mol = gto.Mole()
    mol.atom = g
    mol.basis = "sto-3g"
    mol.spin = 3
    mol.charge = -1
    mol.symmetry = True
    mol.max_memory = 1024 * 14
    mol.verbose = 4
    mol.build()

    return mol

def casscf():
    print("Building molecule...")
    print(f"Time: {time()}")
    print("=" * 20)
    mol = build_femoco()

    print("Running ROHF...")
    print(f"Time: {time()}")
    print("=" * 20)
    mf = scf.ROHF(mol)
    mf.chkfile = 'rohf.chk'
    mf.init_guess = 'chkfile'
    mf.verbose = 4
    mf.kernel()

    print("Running CASSCF...")
    print(f"Time: {time()}")
    print("=" * 20)

    n_orbitals = 6
    n_electrons = 6

    mc = mcscf.CASSCF(mf, n_orbitals, n_electrons)
    mc.chkfile = f'casscf-{n_orbitals}-{n_electrons}.chk'
    mc.init_guess = 'chkfile'
    mc.verbose = 4
    energy = mc.kernel()
    print(energy)

if __name__ == "__main__":
    casscf()
#INFO: ******************** input file end ********************


System: uname_result(system='Linux', node='ip-172-31-48-247', release='5.4.0-1029-aws', version='#30-Ubuntu SMP Tue Oct 20 10:06:38 UTC 2020', machine='x86_64', processor='x86_64')  Threads 2
Python 3.7.1 (default, Dec 14 2018, 19:28:38) 
[GCC 7.3.0]
numpy 1.19.4  scipy 1.5.4
Date: Wed Nov 25 09:20:25 2020
PySCF version 1.7.5.1
PySCF path  /home/ubuntu/.local/lib/python3.7/site-packages/pyscf

[CONFIG] conf_file None
[INPUT] verbose = 4
[INPUT] num. atoms = 18
[INPUT] num. electrons = 375
[INPUT] charge = -1
[INPUT] spin (= nelec alpha-beta = 2S) = 3
[INPUT] symmetry True subgroup None
[INPUT] Mole.unit = angstrom
[INPUT]  1 Fe    10.018000000000  -7.568000000000  56.109000000000 AA   18.931276315893 -14.301447310708 106.030643123221 Bohr
[INPUT]  2 Mo    16.132000000000  -5.638000000000  53.306000000000 AA   30.485061841484 -10.654275890298 100.733740796065 Bohr
[INPUT]  3 Fe    11.990000000000  -5.771000000000  56.166000000000 AA   22.657816233535 -10.905609464865 106.138357512321 Bohr
[INPUT]  4 Fe    11.277000000000  -6.902000000000  53.853000000000 AA   21.310441506720 -13.042889711748 101.767420986202 Bohr
[INPUT]  5 Fe    12.528000000000  -8.326000000000  55.692000000000 AA   23.674488888551 -15.733859713129 105.242627329277 Bohr
[INPUT]  6 Fe    14.820000000000  -7.601000000000  54.671000000000 AA   28.005741166054 -14.363808272819 103.313216956096 Bohr
[INPUT]  7 Fe    14.226000000000  -5.072000000000  55.094000000000 AA   26.883243848063  -9.584690903794 104.112571106788 Bohr
[INPUT]  8 Fe    13.550000000000  -6.198000000000  52.849000000000 AA   25.605788987857 -11.712522520054  99.870135957139 Bohr
[INPUT]  9 C     13.044000000000  -6.665000000000  54.724000000000 AA   24.649587568827 -12.595024620226 103.413372440698 Bohr
[INPUT] 10 S     11.719000000000  -7.459000000000  57.646000000000 AA   22.145700453778 -14.095467163131 108.935152176678 Bohr
[INPUT] 11 S     16.169000000000  -6.043000000000  55.618000000000 AA   30.554981708092 -11.419614970747 105.102787596060 Bohr
[INPUT] 12 S     10.001000000000  -5.522000000000  55.135000000000 AA   18.899150971775 -10.435067659848 104.190049877895 Bohr
[INPUT] 13 S     13.162000000000  -3.960000000000  56.628000000000 AA   24.872575251525  -7.483315453278 107.011410981870 Bohr
[INPUT] 14 S     14.407000000000  -9.544000000000  55.751000000000 AA   27.225284276609 -18.035546132849 105.354121170627 Bohr
[INPUT] 15 S     14.337000000000  -4.109000000000  53.098000000000 AA   27.093003447889  -7.764884645838 100.340677762156 Bohr
[INPUT] 16 S     10.718000000000  -8.998000000000  54.467000000000 AA   20.254084603088 -17.003755668836 102.927712826685 Bohr
[INPUT] 17 S     15.203000000000  -7.626000000000  52.454000000000 AA   28.729506271763 -14.411051425933  99.123694137936 Bohr
[INPUT] 18 S     11.674000000000  -6.465000000000  51.712000000000 AA   22.060662778173 -12.217079395313  97.721517353508 Bohr

nuclear repulsion = 9943.87740731211
point group symmetry = C1
num. orbitals of irrep A = 239
number of shells = 115
number of NR pGTOs = 717
number of NR cGTOs = 239
basis = sto-3g
ecp = {}
CPU time:         0.42
Running ROHF...
Time: 1606296025.0745723
====================


******** <class 'pyscf.scf.rohf.ROHF'> ********
method = ROHF-RHF
initial guess = chkfile
damping factor = 0
level_shift factor = 0
DIIS = <class 'pyscf.scf.diis.CDIIS'>
diis_start_cycle = 1
diis_space = 8
SCF conv_tol = 1e-09
SCF conv_tol_grad = None
SCF max_cycles = 50
direct_scf = True
direct_scf_tol = 1e-13
chkfile to save SCF result = rohf.chk
max_memory 14336 MB (current use 90 MB)
num. doubly occ = 186  num. singly occ = 3
Set gradient conv threshold to 3.16228e-05
init E= -16253.7903349034
  HOMO = 0.069022337129653  LUMO = 0.219109787332709
cycle= 1 E= -16253.790224194  delta_E= 0.000111  |g|= 0.0214  |ddm|= 0.0682
  HOMO = 0.0696722603436855  LUMO = 0.21905616299906
cycle= 2 E= -16253.7749215644  delta_E= 0.0153  |g|= 0.0893  |ddm|= 0.386
  HOMO = 0.0696002115116494  LUMO = 0.219104634503908
cycle= 3 E= -16253.7904758227  delta_E= -0.0156  |g|= 0.0231  |ddm|= 0.273
  HOMO = 0.0691917766579391  LUMO = 0.219168647211241
cycle= 4 E= -16253.7910537487  delta_E= -0.000578  |g|= 0.0177  |ddm|= 0.0483
  HOMO = 0.06910402594071  LUMO = 0.219172679283365
cycle= 5 E= -16253.7911633553  delta_E= -0.00011  |g|= 0.0168  |ddm|= 0.0138
  HOMO = 0.0691328594805323  LUMO = 0.219177350927276
cycle= 6 E= -16253.7910862243  delta_E= 7.71e-05  |g|= 0.017  |ddm|= 0.00521
  HOMO = 0.0692386223558611  LUMO = 0.219132437397143
cycle= 7 E= -16253.7906772525  delta_E= 0.000409  |g|= 0.0176  |ddm|= 0.0269
  HOMO = 0.069329434680571  LUMO = 0.219075213106095
cycle= 8 E= -16253.7903114189  delta_E= 0.000366  |g|= 0.0179  |ddm|= 0.0249
  HOMO = 0.0694650043703806  LUMO = 0.218997073945484
cycle= 9 E= -16253.7892684343  delta_E= 0.00104  |g|= 0.0186  |ddm|= 0.0707
  HOMO = 0.069099279081369  LUMO = 0.218999697156235
cycle= 10 E= -16253.7896360956  delta_E= -0.000368  |g|= 0.0164  |ddm|= 0.0362
  HOMO = 0.0694283485303722  LUMO = 0.218746138912895
cycle= 11 E= -16253.7884430696  delta_E= 0.00119  |g|= 0.0161  |ddm|= 0.0885
  HOMO = 0.0695718805949936  LUMO = 0.218577959198594
cycle= 12 E= -16253.7872696938  delta_E= 0.00117  |g|= 0.0163  |ddm|= 0.0869
  HOMO = 0.0695489017426855  LUMO = 0.218593146764081
cycle= 13 E= -16253.7864890142  delta_E= 0.000781  |g|= 0.0163  |ddm|= 0.0619
  HOMO = 0.0695075110357749  LUMO = 0.218701915679635
cycle= 14 E= -16253.7867424733  delta_E= -0.000253  |g|= 0.0171  |ddm|= 0.0394
  HOMO = 0.0699794484139943  LUMO = 0.218476057761751
cycle= 15 E= -16253.7849957208  delta_E= 0.00175  |g|= 0.0162  |ddm|= 0.146
  HOMO = 0.0700156611520105  LUMO = 0.218156295265511
cycle= 16 E= -16253.7826148677  delta_E= 0.00238  |g|= 0.0167  |ddm|= 0.189
  HOMO = 0.0701863176600089  LUMO = 0.218094708344574
cycle= 17 E= -16253.7824647484  delta_E= 0.00015  |g|= 0.0165  |ddm|= 0.0383
  HOMO = 0.0700662614939143  LUMO = 0.218166980999199
cycle= 18 E= -16253.7822224144  delta_E= 0.000242  |g|= 0.0157  |ddm|= 0.046
  HOMO = 0.0700558598855632  LUMO = 0.218088138987552
cycle= 19 E= -16253.7817415952  delta_E= 0.000481  |g|= 0.0159  |ddm|= 0.0506
  HOMO = 0.0703077329571573  LUMO = 0.217986331602578
cycle= 20 E= -16253.7812120532  delta_E= 0.00053  |g|= 0.0154  |ddm|= 0.0616
  HOMO = 0.0702734937757164  LUMO = 0.217849528197044
cycle= 21 E= -16253.7812877639  delta_E= -7.57e-05  |g|= 0.0152  |ddm|= 0.0303
  HOMO = 0.070212723879386  LUMO = 0.217960946096472
cycle= 22 E= -16253.7810366116  delta_E= 0.000251  |g|= 0.0151  |ddm|= 0.0472
  HOMO = 0.0702017338998929  LUMO = 0.218003130451094
cycle= 23 E= -16253.7810163854  delta_E= 2.02e-05  |g|= 0.0166  |ddm|= 0.0476
  HOMO = 0.0702804065222289  LUMO = 0.2182793047276
cycle= 24 E= -16253.7807035516  delta_E= 0.000313  |g|= 0.0151  |ddm|= 0.0989
  HOMO = 0.0702409267554288  LUMO = 0.217970112041344
cycle= 25 E= -16253.7807972715  delta_E= -9.37e-05  |g|= 0.0154  |ddm|= 0.0336
  HOMO = 0.0703947062622844  LUMO = 0.21795899488784
cycle= 26 E= -16253.780852123  delta_E= -5.49e-05  |g|= 0.0154  |ddm|= 0.0579
  HOMO = 0.0703903831280294  LUMO = 0.218400804576547
cycle= 27 E= -16253.7809459971  delta_E= -9.39e-05  |g|= 0.0146  |ddm|= 0.0911
  HOMO = 0.0702216242985785  LUMO = 0.218459953842983
cycle= 28 E= -16253.7810801814  delta_E= -0.000134  |g|= 0.0146  |ddm|= 0.0429
  HOMO = 0.0703283197477314  LUMO = 0.2183292889779
cycle= 29 E= -16253.7813142782  delta_E= -0.000234  |g|= 0.0143  |ddm|= 0.0405
  HOMO = 0.0704128689317557  LUMO = 0.218312752663536
cycle= 30 E= -16253.7815292056  delta_E= -0.000215  |g|= 0.0145  |ddm|= 0.0452
  HOMO = 0.0704035495709773  LUMO = 0.218431535269356
cycle= 31 E= -16253.7819099898  delta_E= -0.000381  |g|= 0.0141  |ddm|= 0.0551
  HOMO = 0.0703578496123732  LUMO = 0.218379424584472
cycle= 32 E= -16253.782117697  delta_E= -0.000208  |g|= 0.0151  |ddm|= 0.043
  HOMO = 0.0703720530948831  LUMO = 0.218419825309778
cycle= 33 E= -16253.7826521154  delta_E= -0.000534  |g|= 0.0138  |ddm|= 0.056
  HOMO = 0.0703847486758864  LUMO = 0.218514962643711
cycle= 34 E= -16253.7828032926  delta_E= -0.000151  |g|= 0.0147  |ddm|= 0.043
  HOMO = 0.0704640812255551  LUMO = 0.218476457641284
cycle= 35 E= -16253.7832257935  delta_E= -0.000423  |g|= 0.0138  |ddm|= 0.0451
  HOMO = 0.0704459491728942  LUMO = 0.218413450446467
cycle= 36 E= -16253.7835681237  delta_E= -0.000342  |g|= 0.0135  |ddm|= 0.0326
  HOMO = 0.0703106966501526  LUMO = 0.218482109762533
cycle= 37 E= -16253.7838832679  delta_E= -0.000315  |g|= 0.0135  |ddm|= 0.032
  HOMO = 0.0703585787755237  LUMO = 0.218508556078786
cycle= 38 E= -16253.7841872657  delta_E= -0.000304  |g|= 0.0135  |ddm|= 0.0329
  HOMO = 0.0703692342351185  LUMO = 0.218443548767203
cycle= 39 E= -16253.7846119077  delta_E= -0.000425  |g|= 0.0134  |ddm|= 0.0384
  HOMO = 0.0702920991868219  LUMO = 0.218472047485426
cycle= 40 E= -16253.7849612724  delta_E= -0.000349  |g|= 0.0134  |ddm|= 0.0325
  HOMO = 0.0702199293903005  LUMO = 0.218434872329491
cycle= 41 E= -16253.785217281  delta_E= -0.000256  |g|= 0.0137  |ddm|= 0.029
  HOMO = 0.070197662884888  LUMO = 0.218537285690834
cycle= 42 E= -16253.785480674  delta_E= -0.000263  |g|= 0.0133  |ddm|= 0.0269
  HOMO = 0.0701686180977709  LUMO = 0.218501251055313
cycle= 43 E= -16253.7856634238  delta_E= -0.000183  |g|= 0.0133  |ddm|= 0.0166
  HOMO = 0.0701250672474188  LUMO = 0.218417465753642
cycle= 44 E= -16253.7858995529  delta_E= -0.000236  |g|= 0.0134  |ddm|= 0.0222
  HOMO = 0.0701135251049978  LUMO = 0.218469839655496
cycle= 45 E= -16253.7860221367  delta_E= -0.000123  |g|= 0.0133  |ddm|= 0.0127
  HOMO = 0.070072264442297  LUMO = 0.218505980233072
cycle= 46 E= -16253.7860809212  delta_E= -5.88e-05  |g|= 0.0133  |ddm|= 0.00691
  HOMO = 0.0701240742247921  LUMO = 0.218454815462183
cycle= 47 E= -16253.7859116607  delta_E= 0.000169  |g|= 0.0133  |ddm|= 0.0156
  HOMO = 0.0701094869994981  LUMO = 0.21846123096826
cycle= 48 E= -16253.7859861561  delta_E= -7.45e-05  |g|= 0.0133  |ddm|= 0.00664
  HOMO = 0.0701229190549944  LUMO = 0.218465863410645
cycle= 49 E= -16253.7859909093  delta_E= -4.75e-06  |g|= 0.0133  |ddm|= 0.0024
  HOMO = 0.0701690864880571  LUMO = 0.218447983862347
cycle= 50 E= -16253.7857069951  delta_E= 0.000284  |g|= 0.0134  |ddm|= 0.0256
SCF not converged.
SCF energy = -16253.7857069951
Running CASSCF...
Time: 1606296283.9504185
====================

******** <class 'pyscf.mcscf.mc1step_symm.SymAdaptedCASSCF'> ********
<class 'pyscf.mcscf.mc1step_symm.SymAdaptedCASSCF'> does not have attributes  init_guess
Traceback (most recent call last):
  File "casscf_test.py", line 54, in <module>
    casscf()
  File "casscf_test.py", line 50, in casscf
    energy = mc.kernel()
  File "/home/ubuntu/.local/lib/python3.7/site-packages/pyscf/mcscf/mc1step_symm.py", line 64, in kernel
    self.dump_flags()
  File "/home/ubuntu/.local/lib/python3.7/site-packages/pyscf/mcscf/mc1step.py", line 738, in dump_flags
    ncore = self.ncore
  File "/home/ubuntu/.local/lib/python3.7/site-packages/pyscf/mcscf/casci.py", line 728, in ncore
    assert(ncorelec % 2 == 0)
AssertionError
Building molecule...
Time: 1606320709.4938579
====================
#INFO: **** input file is /home/ubuntu/src/casscf_test.py ****

import pyscf
from pyscf import gto, scf, mcscf
from gen_hamiltonian import load_xyz
from time import time

def build_femoco():
    """ Returns the PySCF Mol object for Femoco """

    g = load_xyz("molecules/ICS.xyz")

    mol = gto.Mole()
    mol.atom = g
    mol.basis = "sto-3g"
    mol.spin = 3
    mol.charge = -1
    mol.symmetry = True
    mol.max_memory = 1024 * 14
    mol.verbose = 4
    mol.build()

    return mol

def casscf():
    print("Building molecule...")
    print(f"Time: {time()}")
    print("=" * 20)
    mol = build_femoco()

    print("Running ROHF...")
    print(f"Time: {time()}")
    print("=" * 20)
    mf = scf.ROHF(mol)
    mf.chkfile = 'rohf.chk'
    mf.init_guess = 'chkfile'
    mf.max_cycle = 10000
    mf.verbose = 4
    mf.kernel()

    print("Running CASSCF...")
    print(f"Time: {time()}")
    print("=" * 20)

    n_orbitals = 6
    n_electrons = 6

    mc = mcscf.CASSCF(mf, n_orbitals, n_electrons)
    mc.chkfile = f'casscf-{n_orbitals}-{n_electrons}.chk'
    mc.init_guess = 'chkfile'
    mc.verbose = 4
    energy = mc.kernel()
    print(energy)

if __name__ == "__main__":
    casscf()
#INFO: ******************** input file end ********************


System: uname_result(system='Linux', node='ip-172-31-48-247', release='5.4.0-1029-aws', version='#30-Ubuntu SMP Tue Oct 20 10:06:38 UTC 2020', machine='x86_64', processor='x86_64')  Threads 2
Python 3.7.1 (default, Dec 14 2018, 19:28:38) 
[GCC 7.3.0]
numpy 1.19.4  scipy 1.5.4
Date: Wed Nov 25 16:11:49 2020
PySCF version 1.7.5.1
PySCF path  /home/ubuntu/.local/lib/python3.7/site-packages/pyscf

[CONFIG] conf_file None
[INPUT] verbose = 4
[INPUT] num. atoms = 18
[INPUT] num. electrons = 375
[INPUT] charge = -1
[INPUT] spin (= nelec alpha-beta = 2S) = 3
[INPUT] symmetry True subgroup None
[INPUT] Mole.unit = angstrom
[INPUT]  1 Fe    10.018000000000  -7.568000000000  56.109000000000 AA   18.931276315893 -14.301447310708 106.030643123221 Bohr
[INPUT]  2 Mo    16.132000000000  -5.638000000000  53.306000000000 AA   30.485061841484 -10.654275890298 100.733740796065 Bohr
[INPUT]  3 Fe    11.990000000000  -5.771000000000  56.166000000000 AA   22.657816233535 -10.905609464865 106.138357512321 Bohr
[INPUT]  4 Fe    11.277000000000  -6.902000000000  53.853000000000 AA   21.310441506720 -13.042889711748 101.767420986202 Bohr
[INPUT]  5 Fe    12.528000000000  -8.326000000000  55.692000000000 AA   23.674488888551 -15.733859713129 105.242627329277 Bohr
[INPUT]  6 Fe    14.820000000000  -7.601000000000  54.671000000000 AA   28.005741166054 -14.363808272819 103.313216956096 Bohr
[INPUT]  7 Fe    14.226000000000  -5.072000000000  55.094000000000 AA   26.883243848063  -9.584690903794 104.112571106788 Bohr
[INPUT]  8 Fe    13.550000000000  -6.198000000000  52.849000000000 AA   25.605788987857 -11.712522520054  99.870135957139 Bohr
[INPUT]  9 C     13.044000000000  -6.665000000000  54.724000000000 AA   24.649587568827 -12.595024620226 103.413372440698 Bohr
[INPUT] 10 S     11.719000000000  -7.459000000000  57.646000000000 AA   22.145700453778 -14.095467163131 108.935152176678 Bohr
[INPUT] 11 S     16.169000000000  -6.043000000000  55.618000000000 AA   30.554981708092 -11.419614970747 105.102787596060 Bohr
[INPUT] 12 S     10.001000000000  -5.522000000000  55.135000000000 AA   18.899150971775 -10.435067659848 104.190049877895 Bohr
[INPUT] 13 S     13.162000000000  -3.960000000000  56.628000000000 AA   24.872575251525  -7.483315453278 107.011410981870 Bohr
[INPUT] 14 S     14.407000000000  -9.544000000000  55.751000000000 AA   27.225284276609 -18.035546132849 105.354121170627 Bohr
[INPUT] 15 S     14.337000000000  -4.109000000000  53.098000000000 AA   27.093003447889  -7.764884645838 100.340677762156 Bohr
[INPUT] 16 S     10.718000000000  -8.998000000000  54.467000000000 AA   20.254084603088 -17.003755668836 102.927712826685 Bohr
[INPUT] 17 S     15.203000000000  -7.626000000000  52.454000000000 AA   28.729506271763 -14.411051425933  99.123694137936 Bohr
[INPUT] 18 S     11.674000000000  -6.465000000000  51.712000000000 AA   22.060662778173 -12.217079395313  97.721517353508 Bohr

nuclear repulsion = 9943.87740731211
point group symmetry = C1
num. orbitals of irrep A = 239
number of shells = 115
number of NR pGTOs = 717
number of NR cGTOs = 239
basis = sto-3g
ecp = {}
CPU time:         0.42
Running ROHF...
Time: 1606320709.534092
====================


******** <class 'pyscf.scf.rohf.ROHF'> ********
method = ROHF-RHF
initial guess = chkfile
damping factor = 0
level_shift factor = 0
DIIS = <class 'pyscf.scf.diis.CDIIS'>
diis_start_cycle = 1
diis_space = 8
SCF conv_tol = 1e-09
SCF conv_tol_grad = None
SCF max_cycles = 10000
direct_scf = True
direct_scf_tol = 1e-13
chkfile to save SCF result = rohf.chk
max_memory 14336 MB (current use 90 MB)
num. doubly occ = 186  num. singly occ = 3
Set gradient conv threshold to 3.16228e-05
init E= -16253.7857069951
  HOMO = 0.0700742694934523  LUMO = 0.218497234419088
cycle= 1 E= -16253.785804408  delta_E= -9.74e-05  |g|= 0.0153  |ddm|= 0.0405
  HOMO = 0.0701808058748349  LUMO = 0.218386797650324
cycle= 2 E= -16253.7823323176  delta_E= 0.00347  |g|= 0.0444  |ddm|= 0.19
  HOMO = 0.070134482915183  LUMO = 0.218428921992473
cycle= 3 E= -16253.7861175604  delta_E= -0.00379  |g|= 0.0147  |ddm|= 0.155
  HOMO = 0.0701203365259081  LUMO = 0.218458826055835
cycle= 4 E= -16253.7862244875  delta_E= -0.000107  |g|= 0.0137  |ddm|= 0.0288
  HOMO = 0.0700355135923969  LUMO = 0.218476165498575
cycle= 5 E= -16253.7862925432  delta_E= -6.81e-05  |g|= 0.0134  |ddm|= 0.00781
  HOMO = 0.0700321695551839  LUMO = 0.218475623722947
cycle= 6 E= -16253.7862978276  delta_E= -5.28e-06  |g|= 0.0134  |ddm|= 0.00049
  HOMO = 0.0701336244734814  LUMO = 0.218489845566855
cycle= 7 E= -16253.7860456363  delta_E= 0.000252  |g|= 0.0135  |ddm|= 0.0218
  HOMO = 0.0702112449486878  LUMO = 0.218488979769028
cycle= 8 E= -16253.7857708737  delta_E= 0.000275  |g|= 0.0136  |ddm|= 0.0244
  HOMO = 0.0702500420393801  LUMO = 0.218473974276438
cycle= 9 E= -16253.7856205311  delta_E= 0.00015  |g|= 0.0135  |ddm|= 0.0144
  HOMO = 0.070180072857073  LUMO = 0.218435997832246
cycle= 10 E= -16253.7855978758  delta_E= 2.27e-05  |g|= 0.0133  |ddm|= 0.0105
  HOMO = 0.0702613480373981  LUMO = 0.218475645291771
cycle= 11 E= -16253.7852908613  delta_E= 0.000307  |g|= 0.0132  |ddm|= 0.0282
  HOMO = 0.0703774255348267  LUMO = 0.218453453763048
cycle= 12 E= -16253.7850537542  delta_E= 0.000237  |g|= 0.0132  |ddm|= 0.022
  HOMO = 0.0704648431210322  LUMO = 0.218413235416239
cycle= 13 E= -16253.7849038298  delta_E= 0.00015  |g|= 0.0133  |ddm|= 0.0157
  HOMO = 0.0705062291459063  LUMO = 0.218328892692131
cycle= 14 E= -16253.7849507248  delta_E= -4.69e-05  |g|= 0.0136  |ddm|= 0.0162
  HOMO = 0.0708574259622722  LUMO = 0.218513307638127
cycle= 15 E= -16253.7837623835  delta_E= 0.00119  |g|= 0.0134  |ddm|= 0.114
  HOMO = 0.070766750380683  LUMO = 0.218492247103471
cycle= 16 E= -16253.7838688478  delta_E= -0.000106  |g|= 0.0136  |ddm|= 0.0268
  HOMO = 0.0709307939948232  LUMO = 0.218396991336355
cycle= 17 E= -16253.7834820449  delta_E= 0.000387  |g|= 0.0132  |ddm|= 0.0473
  HOMO = 0.0712340398683833  LUMO = 0.218353795959168
cycle= 18 E= -16253.7830865443  delta_E= 0.000396  |g|= 0.0133  |ddm|= 0.047
  HOMO = 0.0712625932689377  LUMO = 0.218423796233369
cycle= 19 E= -16253.7828983702  delta_E= 0.000188  |g|= 0.013  |ddm|= 0.0275
  HOMO = 0.0712574887688287  LUMO = 0.218281406238998
cycle= 20 E= -16253.7828064052  delta_E= 9.2e-05  |g|= 0.0129  |ddm|= 0.0249
  HOMO = 0.0714432085221631  LUMO = 0.218060300636298
cycle= 21 E= -16253.7828384577  delta_E= -3.21e-05  |g|= 0.0131  |ddm|= 0.0229
  HOMO = 0.071716003555066  LUMO = 0.217812774989876
cycle= 22 E= -16253.7828658876  delta_E= -2.74e-05  |g|= 0.0132  |ddm|= 0.0419
  HOMO = 0.0717101585420994  LUMO = 0.217865584158136
cycle= 23 E= -16253.7828791511  delta_E= -1.33e-05  |g|= 0.0148  |ddm|= 0.0442
  HOMO = 0.071859629072034  LUMO = 0.217952926896599
cycle= 24 E= -16253.782737858  delta_E= 0.000141  |g|= 0.0132  |ddm|= 0.0707
  HOMO = 0.0718984788138686  LUMO = 0.217871964937697
cycle= 25 E= -16253.7829053033  delta_E= -0.000167  |g|= 0.0133  |ddm|= 0.0367
  HOMO = 0.0721147946679283  LUMO = 0.217728940306377
cycle= 26 E= -16253.7831308221  delta_E= -0.000226  |g|= 0.0125  |ddm|= 0.0614
  HOMO = 0.072193506262006  LUMO = 0.217596360850074
cycle= 27 E= -16253.7833138621  delta_E= -0.000183  |g|= 0.0125  |ddm|= 0.0347
  HOMO = 0.0722518990377573  LUMO = 0.217526773322339
cycle= 28 E= -16253.7834929953  delta_E= -0.000179  |g|= 0.0124  |ddm|= 0.0278
  HOMO = 0.0722352313463555  LUMO = 0.217351706761496
cycle= 29 E= -16253.7839816088  delta_E= -0.000489  |g|= 0.0123  |ddm|= 0.0573
  HOMO = 0.0724284169053533  LUMO = 0.217210194324331
cycle= 30 E= -16253.7843060912  delta_E= -0.000324  |g|= 0.013  |ddm|= 0.0505
  HOMO = 0.0725692268836037  LUMO = 0.217050923764973
cycle= 31 E= -16253.7849062376  delta_E= -0.0006  |g|= 0.0126  |ddm|= 0.0717
  HOMO = 0.0725304098739046  LUMO = 0.217038676676638
cycle= 32 E= -16253.78536984  delta_E= -0.000464  |g|= 0.0133  |ddm|= 0.0606
  HOMO = 0.0724939021470047  LUMO = 0.216978784618873
cycle= 33 E= -16253.7859160353  delta_E= -0.000546  |g|= 0.0124  |ddm|= 0.0667
  HOMO = 0.0725579495343912  LUMO = 0.21696572789646
cycle= 34 E= -16253.7859922625  delta_E= -7.62e-05  |g|= 0.0123  |ddm|= 0.0266
  HOMO = 0.0725455594254493  LUMO = 0.216879478952856
cycle= 35 E= -16253.7865736269  delta_E= -0.000581  |g|= 0.0118  |ddm|= 0.0598
  HOMO = 0.072533113312577  LUMO = 0.216775061676746
cycle= 36 E= -16253.7869498154  delta_E= -0.000376  |g|= 0.0118  |ddm|= 0.0405
  HOMO = 0.0725377857321829  LUMO = 0.216741565689289
cycle= 37 E= -16253.7873859085  delta_E= -0.000436  |g|= 0.0119  |ddm|= 0.0474
  HOMO = 0.0724845492842008  LUMO = 0.216686621389852
cycle= 38 E= -16253.7881536605  delta_E= -0.000768  |g|= 0.0118  |ddm|= 0.0805
  HOMO = 0.0724612348307627  LUMO = 0.216637643880494
cycle= 39 E= -16253.7885664687  delta_E= -0.000413  |g|= 0.0117  |ddm|= 0.0439
  HOMO = 0.0724596275094456  LUMO = 0.216588186827491
cycle= 40 E= -16253.7890125942  delta_E= -0.000446  |g|= 0.0116  |ddm|= 0.0478
  HOMO = 0.0724706554072681  LUMO = 0.216576869817231
cycle= 41 E= -16253.7892353346  delta_E= -0.000223  |g|= 0.0117  |ddm|= 0.0282
  HOMO = 0.0723936374218744  LUMO = 0.216576916482324
cycle= 42 E= -16253.7896622358  delta_E= -0.000427  |g|= 0.0115  |ddm|= 0.0441
  HOMO = 0.0723966554566351  LUMO = 0.216566495550356
cycle= 43 E= -16253.7897296144  delta_E= -6.74e-05  |g|= 0.0117  |ddm|= 0.0155
  HOMO = 0.072332954774749  LUMO = 0.21653793941299
cycle= 44 E= -16253.7902273707  delta_E= -0.000498  |g|= 0.0115  |ddm|= 0.0512
  HOMO = 0.0723290751260333  LUMO = 0.216508113581768
cycle= 45 E= -16253.7905165205  delta_E= -0.000289  |g|= 0.0115  |ddm|= 0.0307
  HOMO = 0.0723196796229886  LUMO = 0.216515570929243
cycle= 46 E= -16253.7907581515  delta_E= -0.000242  |g|= 0.0114  |ddm|= 0.0254
  HOMO = 0.0722582210668173  LUMO = 0.21654161911811
cycle= 47 E= -16253.7909827562  delta_E= -0.000225  |g|= 0.0114  |ddm|= 0.0231
  HOMO = 0.072254830830545  LUMO = 0.216528676957771
cycle= 48 E= -16253.7910995152  delta_E= -0.000117  |g|= 0.0114  |ddm|= 0.0125
  HOMO = 0.0722491052824481  LUMO = 0.216522944833136
cycle= 49 E= -16253.7912133335  delta_E= -0.000114  |g|= 0.0114  |ddm|= 0.0121
  HOMO = 0.0722733865174376  LUMO = 0.216522753743786
cycle= 50 E= -16253.7910421416  delta_E= 0.000171  |g|= 0.0114  |ddm|= 0.0183
  HOMO = 0.0722729170606004  LUMO = 0.216522539322057
cycle= 51 E= -16253.7910718413  delta_E= -2.97e-05  |g|= 0.0114  |ddm|= 0.00306
  HOMO = 0.0723017902082009  LUMO = 0.216514341522941
cycle= 52 E= -16253.7910389441  delta_E= 3.29e-05  |g|= 0.0116  |ddm|= 0.0087
  HOMO = 0.0722899490757818  LUMO = 0.216514643080819
cycle= 53 E= -16253.7909786529  delta_E= 6.03e-05  |g|= 0.0115  |ddm|= 0.0116
  HOMO = 0.0723547804029495  LUMO = 0.216471342958378
cycle= 54 E= -16253.7906408497  delta_E= 0.000338  |g|= 0.0115  |ddm|= 0.0356
  HOMO = 0.0723475061392496  LUMO = 0.216456481065953
cycle= 55 E= -16253.7903992867  delta_E= 0.000242  |g|= 0.0115  |ddm|= 0.0289
  HOMO = 0.0722601352304282  LUMO = 0.216460255098154
cycle= 56 E= -16253.7904085741  delta_E= -9.29e-06  |g|= 0.0116  |ddm|= 0.0168
  HOMO = 0.0724307272644567  LUMO = 0.216410763289462
cycle= 57 E= -16253.7897761038  delta_E= 0.000632  |g|= 0.0114  |ddm|= 0.0708
  HOMO = 0.0724921489547614  LUMO = 0.216324729874583
cycle= 58 E= -16253.7895244916  delta_E= 0.000252  |g|= 0.0117  |ddm|= 0.0333
  HOMO = 0.0724723582669123  LUMO = 0.216314440909545
cycle= 59 E= -16253.7892574437  delta_E= 0.000267  |g|= 0.0113  |ddm|= 0.0378
  HOMO = 0.0724300904029903  LUMO = 0.216281207469973
cycle= 60 E= -16253.7889138631  delta_E= 0.000344  |g|= 0.0112  |ddm|= 0.0454
  HOMO = 0.0725206961636093  LUMO = 0.216208197085316
cycle= 61 E= -16253.7885836682  delta_E= 0.00033  |g|= 0.0116  |ddm|= 0.0475
  HOMO = 0.072526753057793  LUMO = 0.216211868931198
cycle= 62 E= -16253.7884817975  delta_E= 0.000102  |g|= 0.0112  |ddm|= 0.0266
  HOMO = 0.0725061542391505  LUMO = 0.21610000476181
cycle= 63 E= -16253.7881424008  delta_E= 0.000339  |g|= 0.0115  |ddm|= 0.0591
  HOMO = 0.0725451162734014  LUMO = 0.216074868467773
cycle= 64 E= -16253.7879579132  delta_E= 0.000184  |g|= 0.0112  |ddm|= 0.0413
  HOMO = 0.07243926374065  LUMO = 0.216083577812196
cycle= 65 E= -16253.7878452687  delta_E= 0.000113  |g|= 0.0114  |ddm|= 0.03
  HOMO = 0.0725286910473119  LUMO = 0.216070862953085
cycle= 66 E= -16253.7876519024  delta_E= 0.000193  |g|= 0.0111  |ddm|= 0.0539
  HOMO = 0.0726129010597428  LUMO = 0.216015458840041
cycle= 67 E= -16253.7875583946  delta_E= 9.35e-05  |g|= 0.0111  |ddm|= 0.0372
  HOMO = 0.0725503760418464  LUMO = 0.215998413617284
cycle= 68 E= -16253.7874947845  delta_E= 6.36e-05  |g|= 0.0108  |ddm|= 0.032
  HOMO = 0.0724914641699633  LUMO = 0.215928323376442
cycle= 69 E= -16253.7874605263  delta_E= 3.43e-05  |g|= 0.0107  |ddm|= 0.0444
  HOMO = 0.0726017888034784  LUMO = 0.215926348026286
cycle= 70 E= -16253.7874002342  delta_E= 6.03e-05  |g|= 0.011  |ddm|= 0.0461
  HOMO = 0.072590247990882  LUMO = 0.215908717695786
cycle= 71 E= -16253.7874386962  delta_E= -3.85e-05  |g|= 0.0105  |ddm|= 0.0262
  HOMO = 0.0725626342131641  LUMO = 0.215837844409726
cycle= 72 E= -16253.7875470649  delta_E= -0.000108  |g|= 0.0106  |ddm|= 0.0581
  HOMO = 0.0725835362178068  LUMO = 0.215830808819662
cycle= 73 E= -16253.7876006437  delta_E= -5.36e-05  |g|= 0.0105  |ddm|= 0.0283
  HOMO = 0.0725272902857836  LUMO = 0.21579754798692
cycle= 74 E= -16253.7876869521  delta_E= -8.63e-05  |g|= 0.0105  |ddm|= 0.0288
  HOMO = 0.0725740494416124  LUMO = 0.215799546018784
cycle= 75 E= -16253.787843337  delta_E= -0.000156  |g|= 0.0103  |ddm|= 0.0419
  HOMO = 0.0726274940910694  LUMO = 0.215752328640197
cycle= 76 E= -16253.7879845682  delta_E= -0.000141  |g|= 0.0104  |ddm|= 0.031
  HOMO = 0.0725741489939528  LUMO = 0.215752899324123
cycle= 77 E= -16253.7881117066  delta_E= -0.000127  |g|= 0.0101  |ddm|= 0.0274
  HOMO = 0.0725346710855999  LUMO = 0.215734580589232
cycle= 78 E= -16253.7883562392  delta_E= -0.000245  |g|= 0.01  |ddm|= 0.0412
  HOMO = 0.072590068674041  LUMO = 0.21571301361472
cycle= 79 E= -16253.7885474696  delta_E= -0.000191  |g|= 0.0102  |ddm|= 0.0336
  HOMO = 0.0725619397461603  LUMO = 0.215707104793455
cycle= 80 E= -16253.7886522718  delta_E= -0.000105  |g|= 0.00991  |ddm|= 0.0203
  HOMO = 0.0725169046956698  LUMO = 0.215653740546678
cycle= 81 E= -16253.7889856635  delta_E= -0.000333  |g|= 0.00991  |ddm|= 0.046
  HOMO = 0.0725208015735212  LUMO = 0.215646172700922
cycle= 82 E= -16253.7891364622  delta_E= -0.000151  |g|= 0.00997  |ddm|= 0.0246
  HOMO = 0.0724778248461689  LUMO = 0.215651142579287
cycle= 83 E= -16253.7893368513  delta_E= -0.0002  |g|= 0.00997  |ddm|= 0.0306
  HOMO = 0.0724804606695895  LUMO = 0.215653438234697
cycle= 84 E= -16253.7896236889  delta_E= -0.000287  |g|= 0.00985  |ddm|= 0.0387
  HOMO = 0.0724825747603779  LUMO = 0.215635693207937
cycle= 85 E= -16253.7898928334  delta_E= -0.000269  |g|= 0.00989  |ddm|= 0.0368
  HOMO = 0.0724369885756036  LUMO = 0.215637600568799
cycle= 86 E= -16253.790075381  delta_E= -0.000183  |g|= 0.00967  |ddm|= 0.0253
  HOMO = 0.0723915062676712  LUMO = 0.215620462355538
cycle= 87 E= -16253.7903790537  delta_E= -0.000304  |g|= 0.00963  |ddm|= 0.0381
  HOMO = 0.072405024057673  LUMO = 0.215630499683271
cycle= 88 E= -16253.7906334053  delta_E= -0.000254  |g|= 0.00966  |ddm|= 0.0335
  HOMO = 0.0723632281386244  LUMO = 0.215605891968153
cycle= 89 E= -16253.7907623776  delta_E= -0.000129  |g|= 0.00959  |ddm|= 0.0183
  HOMO = 0.0723109617031246  LUMO = 0.215601061872715
cycle= 90 E= -16253.791153548  delta_E= -0.000391  |g|= 0.00958  |ddm|= 0.0486
  HOMO = 0.0723037794598839  LUMO = 0.215593270863928
cycle= 91 E= -16253.7913614684  delta_E= -0.000208  |g|= 0.0096  |ddm|= 0.0273
  HOMO = 0.0722660862836771  LUMO = 0.215598438563291
cycle= 92 E= -16253.7915384887  delta_E= -0.000177  |g|= 0.00956  |ddm|= 0.0237
  HOMO = 0.0722500084214635  LUMO = 0.215608360611646
cycle= 93 E= -16253.7917640175  delta_E= -0.000226  |g|= 0.00951  |ddm|= 0.0287
  HOMO = 0.072233738596259  LUMO = 0.215597555628907
cycle= 94 E= -16253.7919547264  delta_E= -0.000191  |g|= 0.00951  |ddm|= 0.0244
  HOMO = 0.0722104360083842  LUMO = 0.215589379801999
cycle= 95 E= -16253.7920715355  delta_E= -0.000117  |g|= 0.00945  |ddm|= 0.0153
  HOMO = 0.072178910702546  LUMO = 0.2155867885215
cycle= 96 E= -16253.7922710926  delta_E= -0.0002  |g|= 0.00946  |ddm|= 0.0246
  HOMO = 0.0721791503431727  LUMO = 0.215598135839907
cycle= 97 E= -16253.7924123693  delta_E= -0.000141  |g|= 0.00944  |ddm|= 0.0178
  HOMO = 0.0721554070998485  LUMO = 0.215588391726703
cycle= 98 E= -16253.7924700424  delta_E= -5.77e-05  |g|= 0.00944  |ddm|= 0.00847
  HOMO = 0.0721385560475509  LUMO = 0.215580645848016
cycle= 99 E= -16253.7925864608  delta_E= -0.000116  |g|= 0.00943  |ddm|= 0.0142
  HOMO = 0.0721342375984765  LUMO = 0.215578347106588
cycle= 100 E= -16253.7926243678  delta_E= -3.79e-05  |g|= 0.00943  |ddm|= 0.0048
  HOMO = 0.0721381001342573  LUMO = 0.215588119227779
cycle= 101 E= -16253.7926383227  delta_E= -1.4e-05  |g|= 0.00942  |ddm|= 0.00259
  HOMO = 0.0721388319571956  LUMO = 0.215579754113165
cycle= 102 E= -16253.7926256122  delta_E= 1.27e-05  |g|= 0.00945  |ddm|= 0.00338
  HOMO = 0.0721319028176709  LUMO = 0.215583752298017
cycle= 103 E= -16253.7926920669  delta_E= -6.65e-05  |g|= 0.00944  |ddm|= 0.00843
  HOMO = 0.0721337464059207  LUMO = 0.215583632769356
cycle= 104 E= -16253.7927688884  delta_E= -7.68e-05  |g|= 0.00943  |ddm|= 0.00999
  HOMO = 0.0721370590773389  LUMO = 0.215584965739354
cycle= 105 E= -16253.7928104972  delta_E= -4.16e-05  |g|= 0.00943  |ddm|= 0.00625
  HOMO = 0.0721289402870794  LUMO = 0.21559495060793
cycle= 106 E= -16253.7930044357  delta_E= -0.000194  |g|= 0.00945  |ddm|= 0.0242
  HOMO = 0.0721161873298331  LUMO = 0.215589809076007
cycle= 107 E= -16253.7929384854  delta_E= 6.6e-05  |g|= 0.00943  |ddm|= 0.00967
  HOMO = 0.0721221560335771  LUMO = 0.215590155961928
cycle= 108 E= -16253.7928942942  delta_E= 4.42e-05  |g|= 0.00944  |ddm|= 0.00547
  HOMO = 0.0721020901752133  LUMO = 0.215587438067625
cycle= 109 E= -16253.7928957276  delta_E= -1.43e-06  |g|= 0.00945  |ddm|= 0.004
  HOMO = 0.0721103001568123  LUMO = 0.215596885525777
cycle= 110 E= -16253.7929683587  delta_E= -7.26e-05  |g|= 0.00945  |ddm|= 0.0106
  HOMO = 0.0721212469512167  LUMO = 0.215591100738072
cycle= 111 E= -16253.7928051639  delta_E= 0.000163  |g|= 0.00945  |ddm|= 0.0203
  HOMO = 0.0721321440272933  LUMO = 0.215589490113212
cycle= 112 E= -16253.7927540095  delta_E= 5.12e-05  |g|= 0.00944  |ddm|= 0.00673
  HOMO = 0.0721472082870638  LUMO = 0.215592123293478
cycle= 113 E= -16253.7926301241  delta_E= 0.000124  |g|= 0.00943  |ddm|= 0.0151
  HOMO = 0.0721639223052178  LUMO = 0.215597131570559
cycle= 114 E= -16253.7925788684  delta_E= 5.13e-05  |g|= 0.00945  |ddm|= 0.00701
  HOMO = 0.0721642767230961  LUMO = 0.215589516157748
cycle= 115 E= -16253.7927557025  delta_E= -0.000177  |g|= 0.0096  |ddm|= 0.0243
  HOMO = 0.0721827382011824  LUMO = 0.215599956167135
cycle= 116 E= -16253.7924448099  delta_E= 0.000311  |g|= 0.00946  |ddm|= 0.0395
  HOMO = 0.0722024100761776  LUMO = 0.215604434128357
cycle= 117 E= -16253.7923241134  delta_E= 0.000121  |g|= 0.00948  |ddm|= 0.0165
  HOMO = 0.0723148879442976  LUMO = 0.215656368678017
cycle= 118 E= -16253.7919040327  delta_E= 0.00042  |g|= 0.00939  |ddm|= 0.0547
  HOMO = 0.0722718241030963  LUMO = 0.215598780195171
cycle= 119 E= -16253.7921349996  delta_E= -0.000231  |g|= 0.00985  |ddm|= 0.0336
  HOMO = 0.0723312686988335  LUMO = 0.215675036336035
cycle= 120 E= -16253.7917537508  delta_E= 0.000381  |g|= 0.00961  |ddm|= 0.0533
  HOMO = 0.0723863771210512  LUMO = 0.215697930065589
cycle= 121 E= -16253.7915878174  delta_E= 0.000166  |g|= 0.00937  |ddm|= 0.0263
  HOMO = 0.0724369553353626  LUMO = 0.215679545566745
cycle= 122 E= -16253.791465901  delta_E= 0.000122  |g|= 0.00934  |ddm|= 0.028
  HOMO = 0.0724988467914456  LUMO = 0.215707392543298
cycle= 123 E= -16253.7913967181  delta_E= 6.92e-05  |g|= 0.00941  |ddm|= 0.0273
  HOMO = 0.0724870837326636  LUMO = 0.215628559150661
cycle= 124 E= -16253.7916512976  delta_E= -0.000255  |g|= 0.011  |ddm|= 0.0486
  HOMO = 0.0725180090374534  LUMO = 0.215773523437971
cycle= 125 E= -16253.7913542856  delta_E= 0.000297  |g|= 0.00945  |ddm|= 0.0645
  HOMO = 0.0725403535103028  LUMO = 0.215801514160629
cycle= 126 E= -16253.7913064743  delta_E= 4.78e-05  |g|= 0.00937  |ddm|= 0.0281
  HOMO = 0.0726184089282328  LUMO = 0.215791224498646
cycle= 127 E= -16253.7914122945  delta_E= -0.000106  |g|= 0.00923  |ddm|= 0.0474
  HOMO = 0.0726362083922482  LUMO = 0.215821445886429
cycle= 128 E= -16253.7913625373  delta_E= 4.98e-05  |g|= 0.0096  |ddm|= 0.0178
  HOMO = 0.0726520314116495  LUMO = 0.215833914536995
cycle= 129 E= -16253.791454356  delta_E= -9.18e-05  |g|= 0.00919  |ddm|= 0.0293
  HOMO = 0.0726735222268953  LUMO = 0.215852512862056
cycle= 130 E= -16253.7916084134  delta_E= -0.000154  |g|= 0.00906  |ddm|= 0.0407
  HOMO = 0.0727169349404704  LUMO = 0.215845632331176
cycle= 131 E= -16253.7918127681  delta_E= -0.000204  |g|= 0.00907  |ddm|= 0.0445
  HOMO = 0.0728095168756406  LUMO = 0.215850649931377
cycle= 132 E= -16253.7921070135  delta_E= -0.000294  |g|= 0.00909  |ddm|= 0.0576
  HOMO = 0.0728471644286705  LUMO = 0.21585926011779
cycle= 133 E= -16253.7921211364  delta_E= -1.41e-05  |g|= 0.0108  |ddm|= 0.0318
  HOMO = 0.0728035179477081  LUMO = 0.215927481491878
cycle= 134 E= -16253.7923762007  delta_E= -0.000255  |g|= 0.00902  |ddm|= 0.0549
  HOMO = 0.0728123942428163  LUMO = 0.215944032493112
cycle= 135 E= -16253.7926226824  delta_E= -0.000246  |g|= 0.00894  |ddm|= 0.0426
  HOMO = 0.0729141040303653  LUMO = 0.215961441859705
cycle= 136 E= -16253.7929918208  delta_E= -0.000369  |g|= 0.00882  |ddm|= 0.0647
  HOMO = 0.0729275547188215  LUMO = 0.215968631271957
cycle= 137 E= -16253.7931014863  delta_E= -0.00011  |g|= 0.00912  |ddm|= 0.0226
  HOMO = 0.0729586340604617  LUMO = 0.215988026486437
cycle= 138 E= -16253.7932884532  delta_E= -0.000187  |g|= 0.00885  |ddm|= 0.0342
  HOMO = 0.0729808136411881  LUMO = 0.216028885903711
cycle= 139 E= -16253.7936408847  delta_E= -0.000352  |g|= 0.00868  |ddm|= 0.0554
  HOMO = 0.0730220924388361  LUMO = 0.21605886495164
cycle= 140 E= -16253.7939963027  delta_E= -0.000355  |g|= 0.00867  |ddm|= 0.0558
  HOMO = 0.0731345397890096  LUMO = 0.216074291911528
cycle= 141 E= -16253.79438252  delta_E= -0.000386  |g|= 0.00866  |ddm|= 0.0589
  HOMO = 0.0731615521628911  LUMO = 0.216085778561873
cycle= 142 E= -16253.7943936878  delta_E= -1.12e-05  |g|= 0.00974  |ddm|= 0.0234
  HOMO = 0.0731269490774972  LUMO = 0.216138100834424
cycle= 143 E= -16253.7947287007  delta_E= -0.000335  |g|= 0.00855  |ddm|= 0.0501
  HOMO = 0.0731340945654465  LUMO = 0.216174268253653
cycle= 144 E= -16253.7949905657  delta_E= -0.000262  |g|= 0.00855  |ddm|= 0.0397
  HOMO = 0.0732013131258147  LUMO = 0.216208877073174
cycle= 145 E= -16253.7952963373  delta_E= -0.000306  |g|= 0.00845  |ddm|= 0.0452
  HOMO = 0.0732100599688215  LUMO = 0.216223226768796
cycle= 146 E= -16253.7954063495  delta_E= -0.00011  |g|= 0.00865  |ddm|= 0.0205
  HOMO = 0.0732333855603079  LUMO = 0.216244043936371
cycle= 147 E= -16253.795573192  delta_E= -0.000167  |g|= 0.00849  |ddm|= 0.0252
  HOMO = 0.0732379344236584  LUMO = 0.216278943974041
cycle= 148 E= -16253.7957971976  delta_E= -0.000224  |g|= 0.00839  |ddm|= 0.0325
  HOMO = 0.0732370401363252  LUMO = 0.216319473252113
cycle= 149 E= -16253.7959897218  delta_E= -0.000193  |g|= 0.00838  |ddm|= 0.0279
  HOMO = 0.0732692208803791  LUMO = 0.216341916711003
cycle= 150 E= -16253.7961524393  delta_E= -0.000163  |g|= 0.00839  |ddm|= 0.0233
  HOMO = 0.0732972261065297  LUMO = 0.216341722705794
cycle= 151 E= -16253.7961643268  delta_E= -1.19e-05  |g|= 0.00865  |ddm|= 0.0122
  HOMO = 0.0732834215361744  LUMO = 0.216358232375336
cycle= 152 E= -16253.7962301679  delta_E= -6.58e-05  |g|= 0.00835  |ddm|= 0.013
  HOMO = 0.073272657137906  LUMO = 0.216364284770113
cycle= 153 E= -16253.7962451454  delta_E= -1.5e-05  |g|= 0.00836  |ddm|= 0.00393
  HOMO = 0.0732872314131247  LUMO = 0.216382548231199
cycle= 154 E= -16253.7963503982  delta_E= -0.000105  |g|= 0.00834  |ddm|= 0.0151
  HOMO = 0.0732863292611992  LUMO = 0.216383111231844
cycle= 155 E= -16253.7963496014  delta_E= 7.97e-07  |g|= 0.00834  |ddm|= 0.000425
  HOMO = 0.0732773761814239  LUMO = 0.216377247778607
cycle= 156 E= -16253.7962899654  delta_E= 5.96e-05  |g|= 0.00835  |ddm|= 0.00874
  HOMO = 0.0732703890656344  LUMO = 0.216364901161239
cycle= 157 E= -16253.7962494982  delta_E= 4.05e-05  |g|= 0.00835  |ddm|= 0.00582
  HOMO = 0.0732632772073417  LUMO = 0.216378561790657
cycle= 158 E= -16253.7962935158  delta_E= -4.4e-05  |g|= 0.00836  |ddm|= 0.00662
  HOMO = 0.0732713852335056  LUMO = 0.216372919966915
cycle= 159 E= -16253.7962730228  delta_E= 2.05e-05  |g|= 0.00835  |ddm|= 0.00344
  HOMO = 0.0732985508964196  LUMO = 0.216392353184473
cycle= 160 E= -16253.7963921082  delta_E= -0.000119  |g|= 0.00852  |ddm|= 0.0196
  HOMO = 0.0732922676051808  LUMO = 0.216408879748965
cycle= 161 E= -16253.7964407168  delta_E= -4.86e-05  |g|= 0.00835  |ddm|= 0.01
  HOMO = 0.0732921336251609  LUMO = 0.216404545440396
cycle= 162 E= -16253.7964261477  delta_E= 1.46e-05  |g|= 0.00835  |ddm|= 0.00231
  HOMO = 0.0732942427518847  LUMO = 0.216406845876065
cycle= 163 E= -16253.7964480965  delta_E= -2.19e-05  |g|= 0.00835  |ddm|= 0.00354
  HOMO = 0.0733040068513055  LUMO = 0.21639608811999
cycle= 164 E= -16253.7964018567  delta_E= 4.62e-05  |g|= 0.00838  |ddm|= 0.0072
  HOMO = 0.0732936778289363  LUMO = 0.216397088109711
cycle= 165 E= -16253.7964049905  delta_E= -3.13e-06  |g|= 0.00837  |ddm|= 0.00242
  HOMO = 0.0732889436603575  LUMO = 0.216391135168604
cycle= 166 E= -16253.7963969773  delta_E= 8.01e-06  |g|= 0.00838  |ddm|= 0.00361
  HOMO = 0.0733044562877982  LUMO = 0.216372759304745
cycle= 167 E= -16253.7963373746  delta_E= 5.96e-05  |g|= 0.00838  |ddm|= 0.0112
  HOMO = 0.0732778432024028  LUMO = 0.216414019883754
cycle= 168 E= -16253.7965386581  delta_E= -0.000201  |g|= 0.00854  |ddm|= 0.0307
  HOMO = 0.0733313926764212  LUMO = 0.216381947965714
cycle= 169 E= -16253.7966140595  delta_E= -7.54e-05  |g|= 0.00873  |ddm|= 0.0368
  HOMO = 0.0732887326700309  LUMO = 0.216405401378413
cycle= 170 E= -16253.7965464206  delta_E= 6.76e-05  |g|= 0.00854  |ddm|= 0.0308
  HOMO = 0.0733153386861483  LUMO = 0.216378569337085
cycle= 171 E= -16253.7965840586  delta_E= -3.76e-05  |g|= 0.00849  |ddm|= 0.0176
  HOMO = 0.0733209662521421  LUMO = 0.216367472954424
cycle= 172 E= -16253.7966576769  delta_E= -7.36e-05  |g|= 0.0085  |ddm|= 0.0221
  HOMO = 0.0732979681216708  LUMO = 0.216375334657644
cycle= 173 E= -16253.7967113781  delta_E= -5.37e-05  |g|= 0.00847  |ddm|= 0.0163
  HOMO = 0.0733213818216779  LUMO = 0.216395299125881
cycle= 174 E= -16253.796655103  delta_E= 5.63e-05  |g|= 0.00856  |ddm|= 0.0301
  HOMO = 0.0733347038863687  LUMO = 0.216404719844102
cycle= 175 E= -16253.796847258  delta_E= -0.000192  |g|= 0.00843  |ddm|= 0.0428
  HOMO = 0.0733241063415877  LUMO = 0.216400021841133
cycle= 176 E= -16253.796914365  delta_E= -6.71e-05  |g|= 0.00836  |ddm|= 0.0161
  HOMO = 0.073356225264233  LUMO = 0.216411806440313
cycle= 177 E= -16253.796918234  delta_E= -3.87e-06  |g|= 0.00848  |ddm|= 0.0125
  HOMO = 0.0733728361532359  LUMO = 0.216426058378037
cycle= 178 E= -16253.7971571642  delta_E= -0.000239  |g|= 0.00831  |ddm|= 0.0472
  HOMO = 0.073383024962396  LUMO = 0.216435606316852
cycle= 179 E= -16253.7971788334  delta_E= -2.17e-05  |g|= 0.00853  |ddm|= 0.0122
  HOMO = 0.0733509856498381  LUMO = 0.216461279239368
cycle= 180 E= -16253.7972137757  delta_E= -3.49e-05  |g|= 0.00832  |ddm|= 0.0106
  HOMO = 0.0733629011734716  LUMO = 0.216466923177398
cycle= 181 E= -16253.7972218472  delta_E= -8.07e-06  |g|= 0.00831  |ddm|= 0.00615
  HOMO = 0.0733720799465055  LUMO = 0.216501133788186
cycle= 182 E= -16253.797431024  delta_E= -0.000209  |g|= 0.00826  |ddm|= 0.0349
  HOMO = 0.0733510599555495  LUMO = 0.216484567125171
cycle= 183 E= -16253.7973209196  delta_E= 0.00011  |g|= 0.0083  |ddm|= 0.0182
  HOMO = 0.0733415372368771  LUMO = 0.21646838298276
cycle= 184 E= -16253.7972322872  delta_E= 8.86e-05  |g|= 0.00829  |ddm|= 0.0153
  HOMO = 0.0733476468682129  LUMO = 0.216464338168759
cycle= 185 E= -16253.7972066899  delta_E= 2.56e-05  |g|= 0.00827  |ddm|= 0.00505
  HOMO = 0.0733543009011028  LUMO = 0.216466408661172
cycle= 186 E= -16253.797226653  delta_E= -2e-05  |g|= 0.00828  |ddm|= 0.00416
  HOMO = 0.0733853783120006  LUMO = 0.21650072203211
cycle= 187 E= -16253.797378516  delta_E= -0.000152  |g|= 0.0083  |ddm|= 0.0226
  HOMO = 0.0733975217178281  LUMO = 0.216496073998256
cycle= 188 E= -16253.7973716062  delta_E= 6.91e-06  |g|= 0.00832  |ddm|= 0.00443
  HOMO = 0.0733838177238219  LUMO = 0.216505987554941
cycle= 189 E= -16253.797390373  delta_E= -1.88e-05  |g|= 0.00829  |ddm|= 0.00468
  HOMO = 0.0733817946799494  LUMO = 0.216510592371923
cycle= 190 E= -16253.7974063591  delta_E= -1.6e-05  |g|= 0.00829  |ddm|= 0.00248
  HOMO = 0.0733534942398054  LUMO = 0.216465667917357
cycle= 191 E= -16253.7971862532  delta_E= 0.00022  |g|= 0.00835  |ddm|= 0.0351
  HOMO = 0.0733443041662298  LUMO = 0.21645901345258
cycle= 192 E= -16253.7971635614  delta_E= 2.27e-05  |g|= 0.00832  |ddm|= 0.00644
  HOMO = 0.0733147295757005  LUMO = 0.216423682808078
cycle= 193 E= -16253.797014899  delta_E= 0.000149  |g|= 0.00833  |ddm|= 0.0226
  HOMO = 0.0732854175325627  LUMO = 0.216374776284209
cycle= 194 E= -16253.7967993606  delta_E= 0.000216  |g|= 0.0083  |ddm|= 0.0324
  HOMO = 0.07330692594673  LUMO = 0.216387598152743
cycle= 195 E= -16253.7968411102  delta_E= -4.17e-05  |g|= 0.00838  |ddm|= 0.01
  HOMO = 0.0733435994155677  LUMO = 0.216417704499058
cycle= 196 E= -16253.7969946036  delta_E= -0.000153  |g|= 0.00832  |ddm|= 0.0233
  HOMO = 0.0733245409697433  LUMO = 0.216371058512829
cycle= 197 E= -16253.7968195116  delta_E= 0.000175  |g|= 0.00834  |ddm|= 0.0271
  HOMO = 0.0733073359477024  LUMO = 0.216395414117234
cycle= 198 E= -16253.7968978547  delta_E= -7.83e-05  |g|= 0.0083  |ddm|= 0.0131
  HOMO = 0.0732749005546276  LUMO = 0.21637392547403
cycle= 199 E= -16253.7967966502  delta_E= 0.000101  |g|= 0.0083  |ddm|= 0.0164
  HOMO = 0.073293204605772  LUMO = 0.216397276876806
cycle= 200 E= -16253.7968592325  delta_E= -6.26e-05  |g|= 0.00841  |ddm|= 0.0117
  HOMO = 0.0732561675489938  LUMO = 0.216353867582
cycle= 201 E= -16253.7966677543  delta_E= 0.000191  |g|= 0.00831  |ddm|= 0.0336
  HOMO = 0.0733406052732353  LUMO = 0.21641014710244
cycle= 202 E= -16253.7969520077  delta_E= -0.000284  |g|= 0.00829  |ddm|= 0.0484
  HOMO = 0.0732977001672731  LUMO = 0.216390955613893
cycle= 203 E= -16253.7968186554  delta_E= 0.000133  |g|= 0.00827  |ddm|= 0.0263
  HOMO = 0.0732608152097292  LUMO = 0.216377913677753
cycle= 204 E= -16253.7967311732  delta_E= 8.75e-05  |g|= 0.00826  |ddm|= 0.0179
  HOMO = 0.0732883132588826  LUMO = 0.216422050386347
cycle= 205 E= -16253.7969501871  delta_E= -0.000219  |g|= 0.0083  |ddm|= 0.0394
  HOMO = 0.0732782835410796  LUMO = 0.216418850567443
cycle= 206 E= -16253.7968984166  delta_E= 5.18e-05  |g|= 0.00827  |ddm|= 0.0191
  HOMO = 0.0732775349340863  LUMO = 0.216421489903257
cycle= 207 E= -16253.7969046901  delta_E= -6.27e-06  |g|= 0.00825  |ddm|= 0.00137
  HOMO = 0.0732834278266  LUMO = 0.216356023928513
cycle= 208 E= -16253.7967221994  delta_E= 0.000182  |g|= 0.00831  |ddm|= 0.0295
  HOMO = 0.0732300122374773  LUMO = 0.216235325346558
cycle= 209 E= -16253.7963101013  delta_E= 0.000412  |g|= 0.00826  |ddm|= 0.0604
  HOMO = 0.0732342229266909  LUMO = 0.21622518761767
cycle= 210 E= -16253.7962880081  delta_E= 2.21e-05  |g|= 0.0082  |ddm|= 0.00592
  HOMO = 0.0732239813321273  LUMO = 0.216189592744458
cycle= 211 E= -16253.7961729586  delta_E= 0.000115  |g|= 0.00825  |ddm|= 0.0176
  HOMO = 0.0731879906217694  LUMO = 0.216175495038161
cycle= 212 E= -16253.7961555043  delta_E= 1.75e-05  |g|= 0.00827  |ddm|= 0.0107
  HOMO = 0.0731755252655792  LUMO = 0.21616223031927
cycle= 213 E= -16253.7961093467  delta_E= 4.62e-05  |g|= 0.0082  |ddm|= 0.0105
  HOMO = 0.0732376827793326  LUMO = 0.216072531243487
cycle= 214 E= -16253.7959326849  delta_E= 0.000177  |g|= 0.00826  |ddm|= 0.0302
  HOMO = 0.0729864022806503  LUMO = 0.215900337756487
cycle= 215 E= -16253.7954971436  delta_E= 0.000436  |g|= 0.00872  |ddm|= 0.0784
  HOMO = 0.0729502299962705  LUMO = 0.215871428603991
cycle= 216 E= -16253.7953005369  delta_E= 0.000197  |g|= 0.00831  |ddm|= 0.0372
  HOMO = 0.072785339089109  LUMO = 0.215777046487453
cycle= 217 E= -16253.7949827115  delta_E= 0.000318  |g|= 0.00805  |ddm|= 0.0639
  HOMO = 0.0726548292686857  LUMO = 0.215741160627588
cycle= 218 E= -16253.7949308506  delta_E= 5.19e-05  |g|= 0.00797  |ddm|= 0.0207
  HOMO = 0.0726370260654751  LUMO = 0.215652678310101
cycle= 219 E= -16253.7947864781  delta_E= 0.000144  |g|= 0.00829  |ddm|= 0.0349
  HOMO = 0.0726370154283829  LUMO = 0.215538623130431
cycle= 220 E= -16253.7948255264  delta_E= -3.9e-05  |g|= 0.00817  |ddm|= 0.0293
  HOMO = 0.072424771618487  LUMO = 0.215452876232413
cycle= 221 E= -16253.7947666856  delta_E= 5.88e-05  |g|= 0.0083  |ddm|= 0.0462
  HOMO = 0.072252033594857  LUMO = 0.215475036073675
cycle= 222 E= -16253.7946551438  delta_E= 0.000112  |g|= 0.00825  |ddm|= 0.0454
  HOMO = 0.072213892128188  LUMO = 0.215482281698713
cycle= 223 E= -16253.794611469  delta_E= 4.37e-05  |g|= 0.0079  |ddm|= 0.0463
  HOMO = 0.0718761525069634  LUMO = 0.215496460341242
cycle= 224 E= -16253.7947436945  delta_E= -0.000132  |g|= 0.00763  |ddm|= 0.048
  HOMO = 0.0719040912448433  LUMO = 0.21543164671459
cycle= 225 E= -16253.7947039068  delta_E= 3.98e-05  |g|= 0.00768  |ddm|= 0.0168
  HOMO = 0.0717668793849891  LUMO = 0.215384258617799
cycle= 226 E= -16253.7947802662  delta_E= -7.64e-05  |g|= 0.00745  |ddm|= 0.0466
  HOMO = 0.071683585124415  LUMO = 0.215381500191875
cycle= 227 E= -16253.7948595693  delta_E= -7.93e-05  |g|= 0.00743  |ddm|= 0.026
  HOMO = 0.0715380954582609  LUMO = 0.21540266542802
cycle= 228 E= -16253.7950099319  delta_E= -0.00015  |g|= 0.00749  |ddm|= 0.0485
  HOMO = 0.0715144690465307  LUMO = 0.215399852834529
cycle= 229 E= -16253.7950404817  delta_E= -3.05e-05  |g|= 0.00771  |ddm|= 0.022
  HOMO = 0.0713165444338282  LUMO = 0.215403594188241
cycle= 230 E= -16253.7952342654  delta_E= -0.000194  |g|= 0.00745  |ddm|= 0.0592
  HOMO = 0.0712359069561027  LUMO = 0.215424853966368
cycle= 231 E= -16253.795364241  delta_E= -0.00013  |g|= 0.00724  |ddm|= 0.0343
  HOMO = 0.0712286664388034  LUMO = 0.215426383148255
cycle= 232 E= -16253.7954998896  delta_E= -0.000136  |g|= 0.00715  |ddm|= 0.0315
  HOMO = 0.0710425721528792  LUMO = 0.215479612932124
cycle= 233 E= -16253.7956878868  delta_E= -0.000188  |g|= 0.00714  |ddm|= 0.0453
  HOMO = 0.0710345576212255  LUMO = 0.215470212824564
cycle= 234 E= -16253.7957479172  delta_E= -6e-05  |g|= 0.0071  |ddm|= 0.0155
  HOMO = 0.0709498407590386  LUMO = 0.215503435360809
cycle= 235 E= -16253.7960386447  delta_E= -0.000291  |g|= 0.00707  |ddm|= 0.0615
  HOMO = 0.0709083364184973  LUMO = 0.215528681821529
cycle= 236 E= -16253.7962288761  delta_E= -0.00019  |g|= 0.00721  |ddm|= 0.0419
  HOMO = 0.0707807205965327  LUMO = 0.215612751454839
cycle= 237 E= -16253.7964991999  delta_E= -0.00027  |g|= 0.00707  |ddm|= 0.0562
  HOMO = 0.0707505035328254  LUMO = 0.215627527492578
cycle= 238 E= -16253.796565981  delta_E= -6.68e-05  |g|= 0.00695  |ddm|= 0.0162
  HOMO = 0.0707097410088807  LUMO = 0.215643405954267
cycle= 239 E= -16253.7966992783  delta_E= -0.000133  |g|= 0.00679  |ddm|= 0.0252
  HOMO = 0.0707153549901567  LUMO = 0.215648578903507
cycle= 240 E= -16253.7967946407  delta_E= -9.54e-05  |g|= 0.00684  |ddm|= 0.0187
  HOMO = 0.070732935942744  LUMO = 0.215659763182616
cycle= 241 E= -16253.7969232649  delta_E= -0.000129  |g|= 0.00683  |ddm|= 0.0256
  HOMO = 0.0707048662000987  LUMO = 0.215648138417888
cycle= 242 E= -16253.7970301615  delta_E= -0.000107  |g|= 0.0068  |ddm|= 0.0203
  HOMO = 0.0706939525695428  LUMO = 0.215676600237105
cycle= 243 E= -16253.7971204425  delta_E= -9.03e-05  |g|= 0.00685  |ddm|= 0.0189
  HOMO = 0.0706852214896286  LUMO = 0.215710886096544
cycle= 244 E= -16253.7972696368  delta_E= -0.000149  |g|= 0.00674  |ddm|= 0.0276
  HOMO = 0.0706823928452216  LUMO = 0.215717161678332
cycle= 245 E= -16253.7973221776  delta_E= -5.25e-05  |g|= 0.00671  |ddm|= 0.00984
  HOMO = 0.0706840648839371  LUMO = 0.21571541048287
cycle= 246 E= -16253.7973475407  delta_E= -2.54e-05  |g|= 0.0067  |ddm|= 0.00471
  HOMO = 0.0706991979681884  LUMO = 0.215705791223143
cycle= 247 E= -16253.7973441545  delta_E= 3.39e-06  |g|= 0.00672  |ddm|= 0.00332
  HOMO = 0.0706894606356298  LUMO = 0.215714186992881
cycle= 248 E= -16253.797369414  delta_E= -2.53e-05  |g|= 0.0067  |ddm|= 0.0052
  HOMO = 0.070700846779  LUMO = 0.215695713703471
cycle= 249 E= -16253.7972956057  delta_E= 7.38e-05  |g|= 0.0067  |ddm|= 0.0137
  HOMO = 0.0707110384340824  LUMO = 0.21570079694527
cycle= 250 E= -16253.7973244552  delta_E= -2.88e-05  |g|= 0.0067  |ddm|= 0.00533
  HOMO = 0.0706969586308974  LUMO = 0.21570794591713
cycle= 251 E= -16253.7973607086  delta_E= -3.63e-05  |g|= 0.00671  |ddm|= 0.00676
  HOMO = 0.0706941913098842  LUMO = 0.215710537870575
cycle= 252 E= -16253.7973774649  delta_E= -1.68e-05  |g|= 0.00672  |ddm|= 0.00323
  HOMO = 0.0706963218786945  LUMO = 0.215711879182139
cycle= 253 E= -16253.7973868066  delta_E= -9.34e-06  |g|= 0.00671  |ddm|= 0.00197
  HOMO = 0.0706968412445911  LUMO = 0.215712014402774
cycle= 254 E= -16253.7973887432  delta_E= -1.94e-06  |g|= 0.00671  |ddm|= 0.000448
  HOMO = 0.0706993108873958  LUMO = 0.215711245442396
cycle= 255 E= -16253.7973863058  delta_E= 2.44e-06  |g|= 0.00672  |ddm|= 0.000925
  HOMO = 0.070701645191077  LUMO = 0.2157114584321
cycle= 256 E= -16253.7973879014  delta_E= -1.6e-06  |g|= 0.00674  |ddm|= 0.0028
  HOMO = 0.0706998694207448  LUMO = 0.215708681769523
cycle= 257 E= -16253.7973789609  delta_E= 8.94e-06  |g|= 0.00672  |ddm|= 0.0034
  HOMO = 0.0706898330643436  LUMO = 0.215707359914328
cycle= 258 E= -16253.7973839426  delta_E= -4.98e-06  |g|= 0.00673  |ddm|= 0.0027
  HOMO = 0.0707329517909659  LUMO = 0.215711268171891
cycle= 259 E= -16253.7974315131  delta_E= -4.76e-05  |g|= 0.00679  |ddm|= 0.0105
  HOMO = 0.070703861569856  LUMO = 0.21571876250242
cycle= 260 E= -16253.7974593996  delta_E= -2.79e-05  |g|= 0.00672  |ddm|= 0.00667
  HOMO = 0.0707001088861819  LUMO = 0.215717043021982
cycle= 261 E= -16253.797444583  delta_E= 1.48e-05  |g|= 0.00673  |ddm|= 0.00271
  HOMO = 0.0707107962013481  LUMO = 0.21570810694349
cycle= 262 E= -16253.7973584721  delta_E= 8.61e-05  |g|= 0.00674  |ddm|= 0.0154
  HOMO = 0.0707021526239607  LUMO = 0.215690825230042
cycle= 263 E= -16253.7971150604  delta_E= 0.000243  |g|= 0.0067  |ddm|= 0.0437
  HOMO = 0.0706973098682465  LUMO = 0.215690695764062
cycle= 264 E= -16253.7971859121  delta_E= -7.09e-05  |g|= 0.00677  |ddm|= 0.014
  HOMO = 0.0706904674254602  LUMO = 0.215676614823072
cycle= 265 E= -16253.7970646954  delta_E= 0.000121  |g|= 0.00677  |ddm|= 0.0226
  HOMO = 0.0706941499733952  LUMO = 0.215671262185117
cycle= 266 E= -16253.7970114115  delta_E= 5.33e-05  |g|= 0.00668  |ddm|= 0.0113
  HOMO = 0.0707299507674693  LUMO = 0.21565487809925
cycle= 267 E= -16253.7969332519  delta_E= 7.82e-05  |g|= 0.00672  |ddm|= 0.015
  HOMO = 0.0707535276709512  LUMO = 0.215605744055211
cycle= 268 E= -16253.7968108247  delta_E= 0.000122  |g|= 0.00717  |ddm|= 0.0275
  HOMO = 0.0707443205949272  LUMO = 0.215636007839254
cycle= 269 E= -16253.7966890634  delta_E= 0.000122  |g|= 0.00683  |ddm|= 0.0292
  HOMO = 0.0707031549032029  LUMO = 0.215618583228827
cycle= 270 E= -16253.7965445167  delta_E= 0.000145  |g|= 0.00677  |ddm|= 0.0309
  HOMO = 0.0707646598366981  LUMO = 0.215598864173235
cycle= 271 E= -16253.7962988571  delta_E= 0.000246  |g|= 0.00666  |ddm|= 0.0511
  HOMO = 0.0708027108523622  LUMO = 0.215561787527105
cycle= 272 E= -16253.7961461313  delta_E= 0.000153  |g|= 0.00653  |ddm|= 0.0366
  HOMO = 0.0707975150664415  LUMO = 0.215554665205071
cycle= 273 E= -16253.7961815751  delta_E= -3.54e-05  |g|= 0.0067  |ddm|= 0.0111
  HOMO = 0.070827757987642  LUMO = 0.215526419503635
cycle= 274 E= -16253.7960844682  delta_E= 9.71e-05  |g|= 0.00679  |ddm|= 0.0279
  HOMO = 0.0708665859409646  LUMO = 0.215519482041152
cycle= 275 E= -16253.7960149525  delta_E= 6.95e-05  |g|= 0.00653  |ddm|= 0.0225
  HOMO = 0.07094768598777  LUMO = 0.215498923522295
cycle= 276 E= -16253.7959718388  delta_E= 4.31e-05  |g|= 0.0066  |ddm|= 0.0224
  HOMO = 0.0710460727711358  LUMO = 0.215436605100158
cycle= 277 E= -16253.7960374106  delta_E= -6.56e-05  |g|= 0.00701  |ddm|= 0.039
  HOMO = 0.0710368623407716  LUMO = 0.21549017199347
cycle= 278 E= -16253.7959053903  delta_E= 0.000132  |g|= 0.00662  |ddm|= 0.0326
  HOMO = 0.0710400756056604  LUMO = 0.215491999874714
cycle= 279 E= -16253.7958997601  delta_E= 5.63e-06  |g|= 0.00643  |ddm|= 0.0263
  HOMO = 0.0711368692416293  LUMO = 0.215486580117991
cycle= 280 E= -16253.7959161975  delta_E= -1.64e-05  |g|= 0.00632  |ddm|= 0.0273
  HOMO = 0.0712373852317066  LUMO = 0.215474564827049
cycle= 281 E= -16253.7959467695  delta_E= -3.06e-05  |g|= 0.00623  |ddm|= 0.0341
  HOMO = 0.0712358718434786  LUMO = 0.215475334508717
cycle= 282 E= -16253.7959884505  delta_E= -4.17e-05  |g|= 0.00642  |ddm|= 0.015
  HOMO = 0.0713097377895655  LUMO = 0.215474765523315
cycle= 283 E= -16253.7960315221  delta_E= -4.31e-05  |g|= 0.00651  |ddm|= 0.0314
  HOMO = 0.0713867932111134  LUMO = 0.215482855133785
cycle= 284 E= -16253.7960841988  delta_E= -5.27e-05  |g|= 0.00623  |ddm|= 0.024
  HOMO = 0.0714892681623661  LUMO = 0.215500738769466
cycle= 285 E= -16253.79618925  delta_E= -0.000105  |g|= 0.00626  |ddm|= 0.0331
  HOMO = 0.0715891055005691  LUMO = 0.215515341035233
cycle= 286 E= -16253.7963937965  delta_E= -0.000205  |g|= 0.00669  |ddm|= 0.0607
  HOMO = 0.0716133478913101  LUMO = 0.215512776662953
cycle= 287 E= -16253.7963226422  delta_E= 7.12e-05  |g|= 0.00631  |ddm|= 0.0234
  HOMO = 0.0716312464193008  LUMO = 0.215535467529599
cycle= 288 E= -16253.7964472837  delta_E= -0.000125  |g|= 0.00606  |ddm|= 0.0324
  HOMO = 0.0717176584557888  LUMO = 0.215564718621067
cycle= 289 E= -16253.7965833796  delta_E= -0.000136  |g|= 0.00595  |ddm|= 0.0338
  HOMO = 0.0718288425332603  LUMO = 0.215597508831537
cycle= 290 E= -16253.7967652592  delta_E= -0.000182  |g|= 0.00592  |ddm|= 0.0436
  HOMO = 0.0718144364170378  LUMO = 0.215613773050043
cycle= 291 E= -16253.7968436318  delta_E= -7.84e-05  |g|= 0.00622  |ddm|= 0.0213
  HOMO = 0.0718992857873922  LUMO = 0.21564999393758
cycle= 292 E= -16253.797037825  delta_E= -0.000194  |g|= 0.00625  |ddm|= 0.047
  HOMO = 0.0719682876811559  LUMO = 0.215683963673399
cycle= 293 E= -16253.7971689397  delta_E= -0.000131  |g|= 0.00591  |ddm|= 0.0299
  HOMO = 0.0720218585473663  LUMO = 0.215724564907998
cycle= 294 E= -16253.7972968116  delta_E= -0.000128  |g|= 0.00583  |ddm|= 0.0283
  HOMO = 0.0720495155927081  LUMO = 0.215751939099769
cycle= 295 E= -16253.7974081446  delta_E= -0.000111  |g|= 0.0058  |ddm|= 0.0236
  HOMO = 0.0720814173554743  LUMO = 0.215746033509063
cycle= 296 E= -16253.7974046233  delta_E= 3.52e-06  |g|= 0.00588  |ddm|= 0.0084
  HOMO = 0.072114345899347  LUMO = 0.215793758575047
cycle= 297 E= -16253.7975874501  delta_E= -0.000183  |g|= 0.00586  |ddm|= 0.0393
  HOMO = 0.0721781559159304  LUMO = 0.215846833170265
cycle= 298 E= -16253.7977737928  delta_E= -0.000186  |g|= 0.00575  |ddm|= 0.0386
  HOMO = 0.0722322410533607  LUMO = 0.215909939733075
cycle= 299 E= -16253.7979771534  delta_E= -0.000203  |g|= 0.0057  |ddm|= 0.0424
  HOMO = 0.0722429236422084  LUMO = 0.215952137602633
cycle= 300 E= -16253.7980964942  delta_E= -0.000119  |g|= 0.00572  |ddm|= 0.0253
  HOMO = 0.0722575048477211  LUMO = 0.21596538569952
cycle= 301 E= -16253.798146941  delta_E= -5.04e-05  |g|= 0.00567  |ddm|= 0.0107
  HOMO = 0.0722919080130266  LUMO = 0.215968036225635
cycle= 302 E= -16253.7981535405  delta_E= -6.6e-06  |g|= 0.00567  |ddm|= 0.00392
  HOMO = 0.0723026459764394  LUMO = 0.215948580032557
cycle= 303 E= -16253.7981108842  delta_E= 4.27e-05  |g|= 0.00578  |ddm|= 0.0111
  HOMO = 0.0723339968510564  LUMO = 0.216007981125689
cycle= 304 E= -16253.7982825169  delta_E= -0.000172  |g|= 0.00566  |ddm|= 0.0354
  HOMO = 0.0723478365465965  LUMO = 0.216030035981754
cycle= 305 E= -16253.798349716  delta_E= -6.72e-05  |g|= 0.00569  |ddm|= 0.0154
  HOMO = 0.0723408615877548  LUMO = 0.216026215814026
cycle= 306 E= -16253.7983359424  delta_E= 1.38e-05  |g|= 0.00565  |ddm|= 0.00646
  HOMO = 0.0723534048554908  LUMO = 0.216036703961261
cycle= 307 E= -16253.7983645353  delta_E= -2.86e-05  |g|= 0.00564  |ddm|= 0.00585
  HOMO = 0.0723452529500387  LUMO = 0.216030001527726
cycle= 308 E= -16253.7983453573  delta_E= 1.92e-05  |g|= 0.00565  |ddm|= 0.00392
  HOMO = 0.0723463863790311  LUMO = 0.216025295231118
cycle= 309 E= -16253.7983345472  delta_E= 1.08e-05  |g|= 0.00566  |ddm|= 0.00352
  HOMO = 0.0723380142227496  LUMO = 0.216014228767002
cycle= 310 E= -16253.7982981821  delta_E= 3.64e-05  |g|= 0.00564  |ddm|= 0.00784
  HOMO = 0.072335436027881  LUMO = 0.21601532682056
cycle= 311 E= -16253.798298646  delta_E= -4.64e-07  |g|= 0.00564  |ddm|= 0.000818
  HOMO = 0.0723368413796105  LUMO = 0.21601648956145
cycle= 312 E= -16253.7983061007  delta_E= -7.45e-06  |g|= 0.00564  |ddm|= 0.00197
  HOMO = 0.0723419941295826  LUMO = 0.216024095209946
cycle= 313 E= -16253.7983248874  delta_E= -1.88e-05  |g|= 0.00564  |ddm|= 0.00401
  HOMO = 0.072336761362762  LUMO = 0.216008992017718
cycle= 314 E= -16253.7982858121  delta_E= 3.91e-05  |g|= 0.00569  |ddm|= 0.00881
  HOMO = 0.0723523179243474  LUMO = 0.216032959791586
cycle= 315 E= -16253.7983534129  delta_E= -6.76e-05  |g|= 0.00564  |ddm|= 0.0142
  HOMO = 0.0723517750889533  LUMO = 0.21603249365288
cycle= 316 E= -16253.7983520511  delta_E= 1.36e-06  |g|= 0.00564  |ddm|= 0.000286
  HOMO = 0.0723179920939132  LUMO = 0.216002436667851
cycle= 317 E= -16253.7982712746  delta_E= 8.08e-05  |g|= 0.00565  |ddm|= 0.0165
  HOMO = 0.0723067730511363  LUMO = 0.21598476418787
cycle= 318 E= -16253.7982270404  delta_E= 4.42e-05  |g|= 0.00567  |ddm|= 0.00965
  HOMO = 0.0722777269864492  LUMO = 0.215968479481363
cycle= 319 E= -16253.7981688464  delta_E= 5.82e-05  |g|= 0.00563  |ddm|= 0.0126
  HOMO = 0.0722730115424963  LUMO = 0.215966257916852
cycle= 320 E= -16253.7981530354  delta_E= 1.58e-05  |g|= 0.00565  |ddm|= 0.00385
  HOMO = 0.0722561992654711  LUMO = 0.215973279587729
cycle= 321 E= -16253.7981527785  delta_E= 2.57e-07  |g|= 0.00576  |ddm|= 0.00539
  HOMO = 0.0722157901685199  LUMO = 0.215921421817491
cycle= 322 E= -16253.7980392579  delta_E= 0.000114  |g|= 0.00563  |ddm|= 0.0246
  HOMO = 0.0721559510157984  LUMO = 0.215878274137196
cycle= 323 E= -16253.7979566699  delta_E= 8.26e-05  |g|= 0.00582  |ddm|= 0.0201
  HOMO = 0.0720736040737044  LUMO = 0.215823049530358
cycle= 324 E= -16253.7977740922  delta_E= 0.000183  |g|= 0.00572  |ddm|= 0.0396
  HOMO = 0.0719929769157078  LUMO = 0.215792520706388
cycle= 325 E= -16253.797657681  delta_E= 0.000116  |g|= 0.00566  |ddm|= 0.0261
  HOMO = 0.0717861223951401  LUMO = 0.215730317900956
cycle= 326 E= -16253.7974213297  delta_E= 0.000236  |g|= 0.00558  |ddm|= 0.0548
  HOMO = 0.0717232471720908  LUMO = 0.215680448019795
cycle= 327 E= -16253.7973366885  delta_E= 8.46e-05  |g|= 0.00569  |ddm|= 0.0218
  HOMO = 0.0716706751114626  LUMO = 0.215662914673715
cycle= 328 E= -16253.7972909411  delta_E= 4.57e-05  |g|= 0.00562  |ddm|= 0.0161
  HOMO = 0.0715575153830435  LUMO = 0.215616787919169
cycle= 329 E= -16253.7971588657  delta_E= 0.000132  |g|= 0.0056  |ddm|= 0.0371
  HOMO = 0.0715384089753998  LUMO = 0.215646080119441
cycle= 330 E= -16253.797210403  delta_E= -5.15e-05  |g|= 0.00649  |ddm|= 0.0229
  HOMO = 0.0713025638058069  LUMO = 0.215554476664073
cycle= 331 E= -16253.7969803784  delta_E= 0.00023  |g|= 0.00546  |ddm|= 0.0691
  HOMO = 0.0710790200177161  LUMO = 0.215537483897728
cycle= 332 E= -16253.7969187954  delta_E= 6.16e-05  |g|= 0.00578  |ddm|= 0.0371
  HOMO = 0.071031542697717  LUMO = 0.215512583105655
cycle= 333 E= -16253.7968477805  delta_E= 7.1e-05  |g|= 0.00547  |ddm|= 0.0255
  HOMO = 0.0709828552134183  LUMO = 0.215504351601642
cycle= 334 E= -16253.7968308711  delta_E= 1.69e-05  |g|= 0.00535  |ddm|= 0.0121
  HOMO = 0.070809820819118  LUMO = 0.215478681867573
cycle= 335 E= -16253.7967881309  delta_E= 4.27e-05  |g|= 0.00532  |ddm|= 0.0363
  HOMO = 0.0707165486084639  LUMO = 0.215444247683749
cycle= 336 E= -16253.7967959204  delta_E= -7.79e-06  |g|= 0.00547  |ddm|= 0.0212
  HOMO = 0.0706385176494088  LUMO = 0.215447449141036
cycle= 337 E= -16253.7967898858  delta_E= 6.03e-06  |g|= 0.00545  |ddm|= 0.021
  HOMO = 0.070535188104363  LUMO = 0.21545521924456
cycle= 338 E= -16253.7967924461  delta_E= -2.56e-06  |g|= 0.0053  |ddm|= 0.0273
  HOMO = 0.0704352104854088  LUMO = 0.215492976596905
[...]
cycle= 6341 E= -16253.8017644229  delta_E= -2.44e-10  |g|= 3.27e-05  |ddm|= 8.93e-06
  HOMO = 0.0701876290056301  LUMO = 0.216763011399257
cycle= 6342 E= -16253.8017644231  delta_E= -1.27e-10  |g|= 3.27e-05  |ddm|= 6.17e-06
  HOMO = 0.0701876264913927  LUMO = 0.216763011524969
cycle= 6343 E= -16253.8017644232  delta_E= -8.73e-11  |g|= 3.27e-05  |ddm|= 5.95e-06
  HOMO = 0.0701876108581515  LUMO = 0.216763006049152
cycle= 6344 E= -16253.8017644238  delta_E= -6.37e-10  |g|= 3.27e-05  |ddm|= 2.31e-05
  HOMO = 0.070187636870809  LUMO = 0.216762992349659
cycle= 6345 E= -16253.8017644242  delta_E= -3.86e-10  |g|= 3.27e-05  |ddm|= 1.26e-05
  HOMO = 0.0701876054223215  LUMO = 0.216763002011847
cycle= 6346 E= -16253.8017644243  delta_E= -1.46e-10  |g|= 3.28e-05  |ddm|= 1.19e-05
  HOMO = 0.0701876088004505  LUMO = 0.216763001337148
cycle= 6347 E= -16253.8017644242  delta_E= 7.64e-11  |g|= 3.27e-05  |ddm|= 1.06e-05
  HOMO = 0.0701876300428737  LUMO = 0.216762994332013
cycle= 6348 E= -16253.8017644247  delta_E= -4.22e-10  |g|= 3.27e-05  |ddm|= 1.56e-05
  HOMO = 0.0701876076447148  LUMO = 0.216762989283949
cycle= 6349 E= -16253.8017644249  delta_E= -2.36e-10  |g|= 3.27e-05  |ddm|= 1.05e-05
  HOMO = 0.070187597636468  LUMO = 0.216762991143145
cycle= 6350 E= -16253.8017644249  delta_E= -1.82e-11  |g|= 3.27e-05  |ddm|= 3.18e-06
  HOMO = 0.0701876118632408  LUMO = 0.21676298465275
cycle= 6351 E= -16253.801764425  delta_E= -1.2e-10  |g|= 3.27e-05  |ddm|= 5.89e-06
  HOMO = 0.0701876136834377  LUMO = 0.216762985313617
cycle= 6352 E= -16253.8017644254  delta_E= -3.97e-10  |g|= 3.27e-05  |ddm|= 1.58e-05
  HOMO = 0.0701875936399222  LUMO = 0.216762980719398
cycle= 6353 E= -16253.8017644257  delta_E= -2.8e-10  |g|= 3.27e-05  |ddm|= 1.09e-05
  HOMO = 0.0701875972046184  LUMO = 0.216762979985961
cycle= 6354 E= -16253.8017644256  delta_E= 8.73e-11  |g|= 3.27e-05  |ddm|= 2.29e-06
  HOMO = 0.0701875729762726  LUMO = 0.216762992945283
cycle= 6355 E= -16253.8017644254  delta_E= 1.96e-10  |g|= 3.28e-05  |ddm|= 1.13e-05
  HOMO = 0.0701875644682324  LUMO = 0.216762990392356
cycle= 6356 E= -16253.8017644254  delta_E= 3.27e-11  |g|= 3.27e-05  |ddm|= 1.18e-05
  HOMO = 0.0701876065306934  LUMO = 0.2167629864209
cycle= 6357 E= -16253.8017644251  delta_E= 2.73e-10  |g|= 3.27e-05  |ddm|= 1.14e-05
  HOMO = 0.0701876433176246  LUMO = 0.216762968306552
cycle= 6358 E= -16253.8017644259  delta_E= -7.64e-10  |g|= 3.28e-05  |ddm|= 2.81e-05
  HOMO = 0.0701875892773094  LUMO = 0.2167629742242
cycle= 6359 E= -16253.8017644264  delta_E= -5.24e-10  |g|= 3.27e-05  |ddm|= 2.03e-05
  HOMO = 0.070187611152324  LUMO = 0.216762960671046
cycle= 6360 E= -16253.8017644268  delta_E= -4.26e-10  |g|= 3.27e-05  |ddm|= 1.56e-05
  HOMO = 0.0701876168723486  LUMO = 0.216762961858473
cycle= 6361 E= -16253.8017644271  delta_E= -2.4e-10  |g|= 3.27e-05  |ddm|= 1.07e-05
  HOMO = 0.0701875884463149  LUMO = 0.21676295816335
cycle= 6362 E= -16253.8017644273  delta_E= -1.86e-10  |g|= 3.27e-05  |ddm|= 8.73e-06
  HOMO = 0.0701875840831602  LUMO = 0.216762966732545
cycle= 6363 E= -16253.801764427  delta_E= 2.36e-10  |g|= 3.27e-05  |ddm|= 8.31e-06
  HOMO = 0.0701875693903153  LUMO = 0.21676296571048
cycle= 6364 E= -16253.8017644271  delta_E= -4.73e-11  |g|= 3.28e-05  |ddm|= 8.77e-06
  HOMO = 0.0701875665256235  LUMO = 0.216762963116949
cycle= 6365 E= -16253.8017644271  delta_E= -7.28e-12  |g|= 3.27e-05  |ddm|= 8.62e-06
  HOMO = 0.0701875798434511  LUMO = 0.216762955622406
cycle= 6366 E= -16253.8017644278  delta_E= -6.88e-10  |g|= 3.28e-05  |ddm|= 2.5e-05
  HOMO = 0.0701876054896479  LUMO = 0.216762944494405
cycle= 6367 E= -16253.8017644281  delta_E= -3.02e-10  |g|= 3.27e-05  |ddm|= 1.46e-05
  HOMO = 0.0701875738043062  LUMO = 0.216762949345399
cycle= 6368 E= -16253.8017644284  delta_E= -3.49e-10  |g|= 3.27e-05  |ddm|= 1.33e-05
  HOMO = 0.0701875876209668  LUMO = 0.216762942989614
cycle= 6369 E= -16253.8017644286  delta_E= -1.93e-10  |g|= 3.27e-05  |ddm|= 7.14e-06
  HOMO = 0.0701876140445881  LUMO = 0.216762943998825
cycle= 6370 E= -16253.8017644287  delta_E= -1.02e-10  |g|= 3.28e-05  |ddm|= 7.77e-06
  HOMO = 0.0701875726333381  LUMO = 0.216762944289597
cycle= 6371 E= -16253.8017644288  delta_E= -6.18e-11  |g|= 3.27e-05  |ddm|= 6.93e-06
  HOMO = 0.0701875944043074  LUMO = 0.216762943995602
cycle= 6372 E= -16253.801764429  delta_E= -2.4e-10  |g|= 3.28e-05  |ddm|= 1.3e-05
  HOMO = 0.0701875722976213  LUMO = 0.216762939651575
cycle= 6373 E= -16253.8017644293  delta_E= -2.66e-10  |g|= 3.28e-05  |ddm|= 1.31e-05
  HOMO = 0.0701875219309218  LUMO = 0.216762933195042
cycle= 6374 E= -16253.8017644299  delta_E= -6.51e-10  |g|= 3.28e-05  |ddm|= 2.43e-05
  HOMO = 0.0701875439128675  LUMO = 0.216762929547755
cycle= 6375 E= -16253.8017644302  delta_E= -2.62e-10  |g|= 3.27e-05  |ddm|= 1.08e-05
  HOMO = 0.0701875615205536  LUMO = 0.216762921592561
cycle= 6376 E= -16253.8017644304  delta_E= -1.67e-10  |g|= 3.27e-05  |ddm|= 7.47e-06
  HOMO = 0.0701875438012104  LUMO = 0.216762924714065
cycle= 6377 E= -16253.8017644305  delta_E= -1.46e-10  |g|= 3.27e-05  |ddm|= 5.48e-06
  HOMO = 0.070187539270853  LUMO = 0.216762926739935
cycle= 6378 E= -16253.8017644305  delta_E= 1.82e-11  |g|= 3.27e-05  |ddm|= 1.21e-06
  HOMO = 0.0701875852716933  LUMO = 0.216762921276123
cycle= 6379 E= -16253.8017644305  delta_E= -4.37e-11  |g|= 3.28e-05  |ddm|= 6.51e-06
  HOMO = 0.0701875504905017  LUMO = 0.216762914367087
cycle= 6380 E= -16253.801764431  delta_E= -4.26e-10  |g|= 3.28e-05  |ddm|= 1.78e-05
  HOMO = 0.0701875786908482  LUMO = 0.216762913251465
cycle= 6381 E= -16253.8017644313  delta_E= -3.57e-10  |g|= 3.28e-05  |ddm|= 1.61e-05
  HOMO = 0.0701875766114259  LUMO = 0.216762905939681
cycle= 6382 E= -16253.8017644318  delta_E= -5.02e-10  |g|= 3.29e-05  |ddm|= 2.17e-05
  HOMO = 0.0701875498734695  LUMO = 0.216762904477017
cycle= 6383 E= -16253.801764432  delta_E= -1.6e-10  |g|= 3.27e-05  |ddm|= 1.25e-05
  HOMO = 0.0701875283674669  LUMO = 0.216762951732808
cycle= 6384 E= -16253.8017644278  delta_E= 4.2e-09  |g|= 3.3e-05  |ddm|= 0.000139
  HOMO = 0.070187740112096  LUMO = 0.216763086478028
cycle= 6385 E= -16253.8017644146  delta_E= 1.32e-08  |g|= 3.29e-05  |ddm|= 0.000439
  HOMO = 0.0701877176411928  LUMO = 0.216763085539631
cycle= 6386 E= -16253.8017644147  delta_E= -1.53e-10  |g|= 3.29e-05  |ddm|= 2.28e-05
  HOMO = 0.0701875258136665  LUMO = 0.216763088815633
cycle= 6387 E= -16253.8017644192  delta_E= -4.49e-09  |g|= 3.33e-05  |ddm|= 0.000156
  HOMO = 0.0701878406613623  LUMO = 0.216763139397662
cycle= 6388 E= -16253.8017644104  delta_E= 8.83e-09  |g|= 3.29e-05  |ddm|= 0.000298
  HOMO = 0.0701877632441809  LUMO = 0.216763172810347
cycle= 6389 E= -16253.8017644073  delta_E= 3.03e-09  |g|= 3.27e-05  |ddm|= 0.000104
  HOMO = 0.0701878019971714  LUMO = 0.216763185600037
cycle= 6390 E= -16253.8017644064  delta_E= 9.17e-10  |g|= 3.27e-05  |ddm|= 3.2e-05
  HOMO = 0.0701877975084825  LUMO = 0.216763184865293
cycle= 6391 E= -16253.8017644057  delta_E= 7.2e-10  |g|= 3.26e-05  |ddm|= 2.8e-05
  HOMO = 0.0701878077858001  LUMO = 0.216763209707621
cycle= 6392 E= -16253.8017644033  delta_E= 2.44e-09  |g|= 3.27e-05  |ddm|= 8.37e-05
  HOMO = 0.0701878880268013  LUMO = 0.216763238617565
cycle= 6393 E= -16253.8017644  delta_E= 3.23e-09  |g|= 3.26e-05  |ddm|= 0.00011
  HOMO = 0.0701878302163265  LUMO = 0.216763214228566
cycle= 6394 E= -16253.8017644014  delta_E= -1.41e-09  |g|= 3.28e-05  |ddm|= 5.22e-05
  HOMO = 0.0701879531722439  LUMO = 0.216763281389095
cycle= 6395 E= -16253.801764393  delta_E= 8.41e-09  |g|= 3.27e-05  |ddm|= 0.000292
  HOMO = 0.0701879021036748  LUMO = 0.21676332154419
cycle= 6396 E= -16253.8017643916  delta_E= 1.47e-09  |g|= 3.27e-05  |ddm|= 5.31e-05
  HOMO = 0.0701880395768629  LUMO = 0.216763299812165
cycle= 6397 E= -16253.8017643895  delta_E= 2.03e-09  |g|= 3.26e-05  |ddm|= 7.62e-05
  HOMO = 0.070188081725898  LUMO = 0.216763326639341
cycle= 6398 E= -16253.8017643856  delta_E= 3.89e-09  |g|= 3.25e-05  |ddm|= 0.000146
  HOMO = 0.0701880455865388  LUMO = 0.216763321707319
cycle= 6399 E= -16253.8017643857  delta_E= -4.73e-11  |g|= 3.27e-05  |ddm|= 2.42e-05
  HOMO = 0.0701880941756485  LUMO = 0.216763300162439
cycle= 6400 E= -16253.8017643848  delta_E= 8.51e-10  |g|= 3.28e-05  |ddm|= 4.76e-05
  HOMO = 0.070188086246067  LUMO = 0.216763299757257
cycle= 6401 E= -16253.8017643824  delta_E= 2.45e-09  |g|= 3.29e-05  |ddm|= 0.000112
  HOMO = 0.0701882450779218  LUMO = 0.216763294764954
cycle= 6402 E= -16253.8017643794  delta_E= 3.02e-09  |g|= 3.25e-05  |ddm|= 0.000139
  HOMO = 0.0701881813927156  LUMO = 0.216763299383314
cycle= 6403 E= -16253.8017643791  delta_E= 2.55e-10  |g|= 3.28e-05  |ddm|= 3.72e-05
  HOMO = 0.0701882842649111  LUMO = 0.216763263313584
cycle= 6404 E= -16253.801764377  delta_E= 2.11e-09  |g|= 3.24e-05  |ddm|= 0.00015
  HOMO = 0.0701882012649837  LUMO = 0.216763273776985
cycle= 6405 E= -16253.8017643767  delta_E= 2.66e-10  |g|= 3.24e-05  |ddm|= 3.35e-05
  HOMO = 0.0701883058821635  LUMO = 0.216763227348123
cycle= 6406 E= -16253.8017643766  delta_E= 8e-11  |g|= 3.23e-05  |ddm|= 3.85e-05
  HOMO = 0.0701883206434508  LUMO = 0.21676319192228
cycle= 6407 E= -16253.8017643769  delta_E= -2.04e-10  |g|= 3.23e-05  |ddm|= 9.07e-05
  HOMO = 0.0701882477720494  LUMO = 0.216763183410189
cycle= 6408 E= -16253.8017643775  delta_E= -6.4e-10  |g|= 3.25e-05  |ddm|= 3.73e-05
  HOMO = 0.0701882983737389  LUMO = 0.216763134115006
cycle= 6409 E= -16253.8017643782  delta_E= -6.58e-10  |g|= 3.26e-05  |ddm|= 5.51e-05
  HOMO = 0.0701882452984224  LUMO = 0.216763077012575
cycle= 6410 E= -16253.8017643796  delta_E= -1.48e-09  |g|= 3.27e-05  |ddm|= 0.00011
  HOMO = 0.0701883411410319  LUMO = 0.216763031677103
cycle= 6411 E= -16253.8017643803  delta_E= -6.29e-10  |g|= 3.22e-05  |ddm|= 9.51e-05
  HOMO = 0.0701883096430037  LUMO = 0.216763026183771
cycle= 6412 E= -16253.8017643805  delta_E= -2.22e-10  |g|= 3.22e-05  |ddm|= 2.22e-05
  HOMO = 0.070188311909019  LUMO = 0.21676297352242
cycle= 6413 E= -16253.8017643825  delta_E= -2.07e-09  |g|= 3.21e-05  |ddm|= 0.000102
  HOMO = 0.0701882433057152  LUMO = 0.216762965405895
cycle= 6414 E= -16253.8017643833  delta_E= -7.79e-10  |g|= 3.21e-05  |ddm|= 3.57e-05
  HOMO = 0.0701882949536705  LUMO = 0.216762906769052
cycle= 6415 E= -16253.8017643851  delta_E= -1.79e-09  |g|= 3.21e-05  |ddm|= 7.09e-05
  HOMO = 0.0701882053248711  LUMO = 0.216762814620293
cycle= 6416 E= -16253.8017643906  delta_E= -5.53e-09  |g|= 3.21e-05  |ddm|= 0.00022
  HOMO = 0.070188134017308  LUMO = 0.216762817655077
cycle= 6417 E= -16253.801764391  delta_E= -3.06e-10  |g|= 3.22e-05  |ddm|= 2.81e-05
  HOMO = 0.0701881530099534  LUMO = 0.216762769281625
cycle= 6418 E= -16253.8017643927  delta_E= -1.72e-09  |g|= 3.22e-05  |ddm|= 7.08e-05
  HOMO = 0.070188065876028  LUMO = 0.21676272150553
cycle= 6419 E= -16253.801764396  delta_E= -3.31e-09  |g|= 3.21e-05  |ddm|= 0.000123
  HOMO = 0.0701880466037406  LUMO = 0.216762686162939
cycle= 6420 E= -16253.8017643985  delta_E= -2.56e-09  |g|= 3.2e-05  |ddm|= 9.41e-05
  HOMO = 0.0701880336005948  LUMO = 0.21676268430415
cycle= 6421 E= -16253.8017643984  delta_E= 1.86e-10  |g|= 3.2e-05  |ddm|= 1.64e-05
  HOMO = 0.0701879588363988  LUMO = 0.216762636833439
cycle= 6422 E= -16253.8017644028  delta_E= -4.46e-09  |g|= 3.2e-05  |ddm|= 0.00016
  HOMO = 0.070187872549303  LUMO = 0.216762627190749
cycle= 6423 E= -16253.8017644041  delta_E= -1.33e-09  |g|= 3.2e-05  |ddm|= 5.02e-05
  HOMO = 0.0701878811039802  LUMO = 0.216762580509748
cycle= 6424 E= -16253.8017644065  delta_E= -2.37e-09  |g|= 3.2e-05  |ddm|= 8.45e-05
  HOMO = 0.0701877470900945  LUMO = 0.216762539281579
cycle= 6425 E= -16253.8017644117  delta_E= -5.17e-09  |g|= 3.19e-05  |ddm|= 0.000184
  HOMO = 0.0701877246983244  LUMO = 0.216762541714167
cycle= 6426 E= -16253.8017644118  delta_E= -6.91e-11  |g|= 3.19e-05  |ddm|= 9.78e-06
  HOMO = 0.070187715296345  LUMO = 0.216762532470109
cycle= 6427 E= -16253.8017644129  delta_E= -1.1e-09  |g|= 3.19e-05  |ddm|= 3.91e-05
  HOMO = 0.0701876372865051  LUMO = 0.216762527355097
cycle= 6428 E= -16253.8017644147  delta_E= -1.8e-09  |g|= 3.19e-05  |ddm|= 6.45e-05
  HOMO = 0.0701876150469985  LUMO = 0.216762510864984
cycle= 6429 E= -16253.8017644164  delta_E= -1.69e-09  |g|= 3.19e-05  |ddm|= 6.02e-05
  HOMO = 0.0701875942915725  LUMO = 0.216762517120935
cycle= 6430 E= -16253.8017644165  delta_E= -1.6e-10  |g|= 3.19e-05  |ddm|= 1.26e-05
  HOMO = 0.0701874783624856  LUMO = 0.216762499603915
cycle= 6431 E= -16253.8017644209  delta_E= -4.35e-09  |g|= 3.19e-05  |ddm|= 0.000152
  HOMO = 0.0701874365577651  LUMO = 0.216762494337551
cycle= 6432 E= -16253.8017644216  delta_E= -7.57e-10  |g|= 3.19e-05  |ddm|= 2.63e-05
  HOMO = 0.070187422473205  LUMO = 0.216762494255629
cycle= 6433 E= -16253.8017644223  delta_E= -6.37e-10  |g|= 3.19e-05  |ddm|= 2.26e-05
  HOMO = 0.0701874148496707  LUMO = 0.216762497489779
cycle= 6434 E= -16253.8017644223  delta_E= -6.91e-11  |g|= 3.19e-05  |ddm|= 2.71e-06
  HOMO = 0.0701874153535408  LUMO = 0.216762496487826
cycle= 6435 E= -16253.8017644222  delta_E= 1.09e-10  |g|= 3.19e-05  |ddm|= 3.3e-06
  HOMO = 0.0701874202381366  LUMO = 0.216762494115281
cycle= 6436 E= -16253.8017644223  delta_E= -3.64e-11  |g|= 3.19e-05  |ddm|= 1.87e-06
  HOMO = 0.0701874302875778  LUMO = 0.216762498546931
cycle= 6437 E= -16253.8017644219  delta_E= 3.57e-10  |g|= 3.19e-05  |ddm|= 1.23e-05
  HOMO = 0.0701874106445868  LUMO = 0.216762499679092
cycle= 6438 E= -16253.8017644223  delta_E= -4e-10  |g|= 3.19e-05  |ddm|= 1.47e-05
  HOMO = 0.0701873947960317  LUMO = 0.216762494140792
cycle= 6439 E= -16253.801764423  delta_E= -7.13e-10  |g|= 3.19e-05  |ddm|= 2.37e-05
  HOMO = 0.0701873806307809  LUMO = 0.216762497978453
cycle= 6440 E= -16253.8017644234  delta_E= -4.15e-10  |g|= 3.19e-05  |ddm|= 1.64e-05
  HOMO = 0.0701873646758189  LUMO = 0.21676249727484
cycle= 6441 E= -16253.8017644237  delta_E= -3.13e-10  |g|= 3.19e-05  |ddm|= 1.11e-05
  HOMO = 0.0701873596981901  LUMO = 0.216762494438635
cycle= 6442 E= -16253.8017644241  delta_E= -3.17e-10  |g|= 3.19e-05  |ddm|= 1.14e-05
  HOMO = 0.0701873654383215  LUMO = 0.21676249374893
cycle= 6443 E= -16253.8017644239  delta_E= 1.16e-10  |g|= 3.19e-05  |ddm|= 4.44e-06
  HOMO = 0.0701873599842588  LUMO = 0.216762494268148
cycle= 6444 E= -16253.801764424  delta_E= -9.09e-11  |g|= 3.19e-05  |ddm|= 2.72e-06
  HOMO = 0.0701873632558724  LUMO = 0.216762495052877
cycle= 6445 E= -16253.8017644239  delta_E= 1.06e-10  |g|= 3.19e-05  |ddm|= 3.59e-06
  HOMO = 0.0701873429180704  LUMO = 0.216762491899011
cycle= 6446 E= -16253.8017644248  delta_E= -8.73e-10  |g|= 3.19e-05  |ddm|= 3.14e-05
  HOMO = 0.0701873315649975  LUMO = 0.216762492876761
cycle= 6447 E= -16253.801764425  delta_E= -2.11e-10  |g|= 3.19e-05  |ddm|= 7.94e-06
  HOMO = 0.0701873651265094  LUMO = 0.2167624915667
cycle= 6448 E= -16253.8017644242  delta_E= 7.57e-10  |g|= 3.19e-05  |ddm|= 2.63e-05
  HOMO = 0.0701874716751427  LUMO = 0.216762498993279
cycle= 6449 E= -16253.8017644207  delta_E= 3.6e-09  |g|= 3.19e-05  |ddm|= 0.000126
  HOMO = 0.0701875005280463  LUMO = 0.216762508085334
cycle= 6450 E= -16253.8017644193  delta_E= 1.32e-09  |g|= 3.19e-05  |ddm|= 4.54e-05
  HOMO = 0.0701875082969348  LUMO = 0.21676249463862
cycle= 6451 E= -16253.8017644199  delta_E= -5.97e-10  |g|= 3.19e-05  |ddm|= 2.07e-05
  HOMO = 0.0701875372137707  LUMO = 0.216762495649947
cycle= 6452 E= -16253.801764419  delta_E= 9.09e-10  |g|= 3.19e-05  |ddm|= 3.14e-05
  HOMO = 0.0701875806278358  LUMO = 0.216762500602411
cycle= 6453 E= -16253.8017644173  delta_E= 1.7e-09  |g|= 3.19e-05  |ddm|= 6.03e-05
  HOMO = 0.0701876199784523  LUMO = 0.216762496691541
cycle= 6454 E= -16253.8017644175  delta_E= -2e-10  |g|= 3.2e-05  |ddm|= 1.45e-05
  HOMO = 0.0701875873573441  LUMO = 0.216762498568696
cycle= 6455 E= -16253.8017644172  delta_E= 3.57e-10  |g|= 3.19e-05  |ddm|= 1.81e-05
  HOMO = 0.0701877174942724  LUMO = 0.216762505398795
cycle= 6456 E= -16253.8017644122  delta_E= 4.93e-09  |g|= 3.19e-05  |ddm|= 0.000176
  HOMO = 0.0701877517957777  LUMO = 0.216762496326684
cycle= 6457 E= -16253.8017644125  delta_E= -2.84e-10  |g|= 3.19e-05  |ddm|= 1.62e-05
  HOMO = 0.0701878942176475  LUMO = 0.216762505465487
cycle= 6458 E= -16253.8017644067  delta_E= 5.78e-09  |g|= 3.19e-05  |ddm|= 0.000215
  HOMO = 0.0701879207366915  LUMO = 0.216762515756004
cycle= 6459 E= -16253.8017644059  delta_E= 8.69e-10  |g|= 3.2e-05  |ddm|= 6.01e-05
  HOMO = 0.0701879144604223  LUMO = 0.216762469646345
cycle= 6460 E= -16253.8017644084  delta_E= -2.5e-09  |g|= 3.21e-05  |ddm|= 0.000105
  HOMO = 0.0701880678849556  LUMO = 0.216762476387385
cycle= 6461 E= -16253.8017644033  delta_E= 5.08e-09  |g|= 3.19e-05  |ddm|= 0.000202
  HOMO = 0.0701879846468962  LUMO = 0.216762473637676
cycle= 6462 E= -16253.801764403  delta_E= 2.98e-10  |g|= 3.19e-05  |ddm|= 7.69e-05
  HOMO = 0.0701879243201707  LUMO = 0.2167623951033
cycle= 6463 E= -16253.8017644159  delta_E= -1.29e-08  |g|= 3.38e-05  |ddm|= 0.000466
  HOMO = 0.0701881149066517  LUMO = 0.216762445752298
cycle= 6464 E= -16253.8017644023  delta_E= 1.36e-08  |g|= 3.22e-05  |ddm|= 0.000486
  HOMO = 0.0701879559213442  LUMO = 0.216762399645279
cycle= 6465 E= -16253.8017644062  delta_E= -3.92e-09  |g|= 3.22e-05  |ddm|= 0.000235
  HOMO = 0.0701881120687931  LUMO = 0.216762365931235
cycle= 6466 E= -16253.8017644053  delta_E= 9.28e-10  |g|= 3.21e-05  |ddm|= 6.91e-05
  HOMO = 0.0701877479044193  LUMO = 0.216762317546646
cycle= 6467 E= -16253.8017644138  delta_E= -8.45e-09  |g|= 3.19e-05  |ddm|= 0.000313
  HOMO = 0.0701876936274686  LUMO = 0.216762279387826
cycle= 6468 E= -16253.8017644193  delta_E= -5.57e-09  |g|= 3.18e-05  |ddm|= 0.000229
  HOMO = 0.0701878874798516  LUMO = 0.216762232178287
cycle= 6469 E= -16253.8017644168  delta_E= 2.51e-09  |g|= 3.19e-05  |ddm|= 9.93e-05
  HOMO = 0.0701875704523032  LUMO = 0.216762178563019
cycle= 6470 E= -16253.8017644277  delta_E= -1.09e-08  |g|= 3.14e-05  |ddm|= 0.000395
  HOMO = 0.0701873234143118  LUMO = 0.216762117970078
cycle= 6471 E= -16253.801764436  delta_E= -8.34e-09  |g|= 3.15e-05  |ddm|= 0.0003
  HOMO = 0.0701871541750924  LUMO = 0.21676205378316
cycle= 6472 E= -16253.8017644492  delta_E= -1.31e-08  |g|= 3.29e-05  |ddm|= 0.000483
  HOMO = 0.0701873417092871  LUMO = 0.216762052809141
cycle= 6473 E= -16253.8017644427  delta_E= 6.51e-09  |g|= 3.14e-05  |ddm|= 0.000243
  HOMO = 0.0701869069870597  LUMO = 0.216762017214591
cycle= 6474 E= -16253.8017644528  delta_E= -1.01e-08  |g|= 3.11e-05  |ddm|= 0.000362
  HOMO = 0.0701869018650027  LUMO = 0.216761937801331
cycle= 6475 E= -16253.8017644605  delta_E= -7.72e-09  |g|= 3.09e-05  |ddm|= 0.000274
  HOMO = 0.0701866754581344  LUMO = 0.216761903670798
cycle= 6476 E= -16253.8017644668  delta_E= -6.33e-09  |g|= 3.09e-05  |ddm|= 0.000229
  HOMO = 0.0701865737335606  LUMO = 0.216761869829712
cycle= 6477 E= -16253.8017644733  delta_E= -6.55e-09  |g|= 3.08e-05  |ddm|= 0.000232
  HOMO = 0.0701866343144668  LUMO = 0.216761840821818
cycle= 6478 E= -16253.8017644734  delta_E= -2.55e-11  |g|= 3.1e-05  |ddm|= 2.57e-05
  HOMO = 0.070186409971168  LUMO = 0.216761946804359
Extra cycle  E= -16253.8017644738  delta_E= -3.97e-10  |g|= 3.6e-05  |ddm|= 9.23e-05
converged SCF energy = -16253.8017644738
Running CASSCF...
Time: 1606342321.9172983
====================

******** <class 'pyscf.mcscf.mc1step_symm.SymAdaptedCASSCF'> ********
<class 'pyscf.mcscf.mc1step_symm.SymAdaptedCASSCF'> does not have attributes  init_guess
Traceback (most recent call last):
  File "casscf_test.py", line 55, in <module>
    casscf()
  File "casscf_test.py", line 51, in casscf
    energy = mc.kernel()
  File "/home/ubuntu/.local/lib/python3.7/site-packages/pyscf/mcscf/mc1step_symm.py", line 64, in kernel
    self.dump_flags()
  File "/home/ubuntu/.local/lib/python3.7/site-packages/pyscf/mcscf/mc1step.py", line 738, in dump_flags
    ncore = self.ncore
  File "/home/ubuntu/.local/lib/python3.7/site-packages/pyscf/mcscf/casci.py", line 728, in ncore
    assert(ncorelec % 2 == 0)
AssertionError
